/*--------------------------------*- C++ -*----------------------------------*\
| =========                 |                                                 |
| \\      /  F ield         | OpenFOAM: The Open Source CFD Toolbox           |
|  \\    /   O peration     | Version:  v1806                                 |
|   \\  /    A nd           | Web:      www.OpenFOAM.com                      |
|    \\/     M anipulation  |                                                 |
\*---------------------------------------------------------------------------*/
FoamFile
{
    version     2.0;
    format      ascii;
    class       volScalarField;
    object      dnp1_s;
}
// * * * * * * * * * * * * * * * * * * * * * * * * * * * * * * * * * * * * * //

dimensions      [0 -3 -1 0 0 0 0];

internalField   nonuniform List<scalar> 
6400
(
35537822697834.4
57700672242895.7
78061473272209.3
98808591430204.8
125455296292042
146163235645758
161289254276276
185317509052113
203498592010915
226229357736925
238747162185264
269520171654553
278578946535890
293422771886936
319176658862066
332922771768890
361682131883104
363245754432269
390907402102261
396297134907171
425538288425360
432362812576173
432625769415706
445282993933326
467198416975687
466203063569672
485582453199899
489207375001236
504803009839804
515707777030877
552830576491020
527694373367140
539583905098207
547813218807864
559189190536891
541742268955575
568637988650017
553748278212878
557145539394754
546420782926046
577252031158453
552108768790559
570881063435557
546348425674899
544040052882227
540175116784403
549046821699361
544276537556705
520688073682958
536611963368191
511932846294236
530901034960631
498026135586087
490162137754169
475575974809644
467270774226833
452103988462133
446504243147798
423129321405483
410867414552663
393598738882709
380519724535235
364539360897888
347768361930940
336196496180517
310859104602230
306046464995488
271952081217476
271304395579165
244615158772141
226462312789397
206170515870323
180296621746950
165179603652551
141909158721648
132847030699404
102565874056810
80897171592749.2
62659614681833.4
35766718684997.7
53934565561272.4
84480973297703.4
124502827793414
163009239080358
191511995674652
227544141934587
250493744225041
286352939006625
329952594849878
341399159019048
372548073232099
404822936865428
447921386383667
454038221322048
491503394116884
532512307406893
551605797654541
581124026500291
592254689499821
621769388723564
635589623692538
673222453532713
673751896833785
691158227762018
726899180206364
735001427523764
756569182798421
760123512159615
805115603884686
794637920956478
815667408875045
804354970342147
857442250140604
825177975373296
843249640049876
845092102737605
858794095369341
857415777975550
876263959493702
868054058705084
880083010505433
883307320208960
874816814470773
857234002442183
841174222309675
835848022700894
851133050802833
821129498931101
825266215923475
815847419597410
807535159770584
797717516157712
786669799275349
759332876830015
735331447181432
714383140569029
696706793557249
675576711411478
668099207189343
633454202378216
607417945642514
584115381151346
558151481666790
524628896653935
518988560686518
495265971176500
460423307532973
430188565419772
398882583027404
386865984904080
349340808535123
313548676571674
275319340612292
249159547106340
224404543159232
187486461775503
156634741735454
120720837812759
100754825004944
52330881802326.3
73421255700516.7
119033854974444
160463322726604
217532369111321
245691693484320
290554954006131
331477391556965
377030693181172
426951902039221
449310292643478
485818937874378
526354881815429
581279329868605
601461708505458
665354926078788
703460725267920
725506744324545
756378583210035
793151950091470
834118507917393
842264875509883
897796418548288
890373623467263
919332407224880
961460210691154
979715415712105
1.00867596428073E+015
1.05905072956669E+015
1.05585995127223E+015
1.05333450672612E+015
1.07332275615258E+015
1.10685416522045E+015
1.11090440647365E+015
1.11869781186543E+015
1.12940844984611E+015
1144808190663280
1.15364459935817E+015
1159533773677087
1.12546056763112E+015
1.14061147009679E+015
1133705764639807
1.15189037722062E+015
1151055621615926
1.15304103399494E+015
1.12629708804681E+015
1.1090478252979E+015
1.11239567177167E+015
1.09493286689132E+015
1077201810738434
1.07900544758408E+015
1.07421575052039E+015
1.04922955633181E+015
1.0386495143654E+015
1.00753942599443E+015
976454044977504
954865111970804
911044854752105
912439055444927
889604165869705
850536544683626
798354612930001
789484672826047
754479646570191
697613906413085
677618597742612
656560872847987
609616900152965
573124138221098
525599542705900
510130974259589
471585737130567
433280514298031
368526068954957
353606356730757
295657022617458
250739052954537
217634728149528
163188543878320
125080626915984
74070000225429.9
89098954250750.9
144137409094758
210381354924847
268196563401874
319801401957331
368672548268254
420743296928654
467696093678694
539689793758421
580201030345422
615324298938518
671888256414012
703236594270467
778558727902931
814996780693688
862828453323507
904702124005266
940056582839829
1.00166437016353E+015
1022614441586940
1.08478520362078E+015
1.1113209018705E+015
1.12226449490365E+015
1.16984732918196E+015
1.19775605039246E+015
1.24489591710887E+015
1.22504355812969E+015
1.26768668640901E+015
1303319985382134
1306687244776950
1360464565677804
1.3670314274221E+015
1.36366593283828E+015
1.40252354151494E+015
1.40010045600703E+015
1415567259642341
1.4319958852746E+015
1.43657380501786E+015
1.41862744192254E+015
1.41779974556186E+015
1.4300228265726E+015
1442162961466175
1431868818882338
1.39702615523881E+015
1.40075696570036E+015
1.3745442278643E+015
1.36059516169207E+015
1.37154404915823E+015
1.35484540744243E+015
1.3371920029737E+015
1.32270466944537E+015
1305919551990396
1.28174693567447E+015
1.24684956288983E+015
1.21956029034159E+015
1.19033678493344E+015
1.1642317005686E+015
1.12412284089041E+015
1.08685709173898E+015
1.06300214140369E+015
1.01003310394247E+015
972802651011113
923857382638040
884664459870707
859392366299552
804201431784836
761339466941076
732265970468227
669519880047218
627700918506570
584281273385681
533482953458857
474894757762265
425861248839013
376234763418561
311884459795305
266429987587298
207374116974759
145769329829761
90741110889574.9
104756357474444
191575528870780
242073830926997
313561030248699
373462245331949
446878383080555
505300686542812
567925005004574
628138591635456
693138345708026
756595654963474
793086652084338
843757905618905
926268114468919
995026915979098
1.0422091381596E+015
1.09317511513177E+015
1.14304337965971E+015
1169993808495260
1.22592596363148E+015
1259411487613256
1.3094791757846E+015
1351202837531057
1.39279413845224E+015
1443735408070358
1.47987520780151E+015
1501270011597818
1.52834574201462E+015
1.54976701797598E+015
1.59296076728841E+015
1.59487558722729E+015
1603060780661859
1642068398273817
1.62493561305114E+015
1.66051949731616E+015
1.66756285803142E+015
1.6820254842057E+015
1.72767938005711E+015
1719983039270529
1.73577280331949E+015
1.7150274499725E+015
1.72527394265924E+015
1.72151136559962E+015
1.69040833647266E+015
1.64045183139454E+015
1662780220211741
1.66139837319594E+015
1624685009888630
1.64330729559832E+015
1.5977928198162E+015
1.59030119710603E+015
1.52713331685517E+015
1.52228891065036E+015
1.5398452505139E+015
1.4859973371729E+015
1.44197236187779E+015
1.4076909081334E+015
1.35219819093707E+015
1.30378766029808E+015
1.27546773812376E+015
1.2273713438434E+015
1147564825450860
1.10434989840639E+015
1.05621291347295E+015
1.01564696774484E+015
968113548174621
922161399263606
889510630886516
799935883589202
755127332208502
686659724513912
620881688788767
577712646830385
494939481140839
427047201833414
373294588286610
312696272856949
251167902028405
171127369696790
104452809981830
126334348652922
214969863534134
293410418209911
375505896474086
431400990579227
510183918589696
583464165891028
665674356870434
732299501877295
801804818441985
866691624610326
924815675012979
995025151168095
1.08366631344452E+015
1.15267571811721E+015
1.1814756688845E+015
1266541324067688
1.30575895418907E+015
1.34669021579492E+015
1.43538608721246E+015
1.49405546421521E+015
1.53055175576909E+015
1560752966473221
1.62002943846121E+015
1.65974121566359E+015
1.71343735525828E+015
1.73736642765572E+015
1.77432333488152E+015
1.80815476182E+015
1.84519814478498E+015
1833691577041693
1.86949959230417E+015
1.91277275811177E+015
1.93035027570735E+015
1.94888079124486E+015
1962963983053362
1.98036501954858E+015
2.01105508290071E+015
2.03927441084783E+015
1.98151214670091E+015
1.99912496051656E+015
2.00101330829038E+015
1971329187210295
1.97510588275794E+015
1.959822619467E+015
1961305060710004
1931162088768990
1.90949020964512E+015
1.89715418073015E+015
1.86619939572749E+015
1.84466870148391E+015
1.80647819136661E+015
1.75822649371794E+015
1.74697935319217E+015
1.70951771001935E+015
1.6734802693264E+015
1.6365268917226E+015
1.5712659456215E+015
1.5184063264425E+015
1.49034583148571E+015
1.4422229650403E+015
1.36137873777765E+015
1.31557483299094E+015
1.2314727646157E+015
1.18481116168125E+015
1.13605472808556E+015
1.08778008789385E+015
1.00477043752982E+015
934541548453666
878346436477918
803229020921868
726516216218588
656001427759855
577230853426410
500419219306931
441216869381096
366872441044610
292925095183929
199240103059295
125032447575586
140518311169732
234797515159269
333265145103584
423356982024944
489313263661451
574956012042806
658885128939692
749737599403592
824456167672835
919463003239144
984365692706518
1.05916367747092E+015
1141945667215486
1217326039611068
1.27641720644368E+015
1363282968850509
1.40540724269478E+015
1.49400428469611E+015
1.57918465259453E+015
1.63839935619739E+015
1678767643093102
1.74892417491811E+015
1774605704642094
1.81066079344508E+015
1.87175855038875E+015
1945580594668175
2.02040858121964E+015
2042309885773971
2.01897908430675E+015
2.09107161380267E+015
2123720617368760
2.1474043810367E+015
2.16537015705307E+015
2.17823562926911E+015
2.21684969402727E+015
2230950533945811
2.28403604893327E+015
2.27863572726233E+015
2.24732798005896E+015
2265487885285720
2270941151286759
2280894685346906
2267111511409007
2.26864689698211E+015
2229503388922882
2.2173085448882E+015
2.2187909861312E+015
2.20128406097576E+015
2.15901683744021E+015
2.1296680304508E+015
2.07829438213681E+015
2.04958090710869E+015
2.07074099104152E+015
1.9686643225949E+015
1.92016731621673E+015
1.93347399118367E+015
1.88123558547793E+015
1795165752833711
1.71261318851961E+015
1704616829862425
1.65071420738032E+015
1.57790692942794E+015
1.4851043428051E+015
1.4133735995649E+015
1.35373887094319E+015
1278460857585815
1.26169868267389E+015
1.17073679392776E+015
1.06795420107972E+015
1.01441865928635E+015
908702950550364
831923083028949
749599944145314
665796128829681
564894824511440
497798474966626
401888056166488
339253148838704
243593333201073
150551614687241
158290310937906
271625591181815
379744972504666
474303546076068
556181952586804
660639351077243
754767310763773
826993965895972
941457842776666
1030935525468783
1104489318475668
1193231074979296
1.30070100585283E+015
1350475735397585
1434874292021422
1.53509967372529E+015
1.61298254812394E+015
1.68952593097088E+015
1.74438508101692E+015
1828608921351405
1.87304686242136E+015
1.93356223173385E+015
2011160971560921
2.05544007964055E+015
2110749256492504
2.15912272610042E+015
2.24644557455718E+015
2.23192117999778E+015
2.33419197765479E+015
2381118302239775
2.36721159153163E+015
2.39237779644257E+015
2415355635709077
2443486723106019
2489124735658398
2479118257268143
2523362069127700
2545881057533282
2.55825238266832E+015
2556240498124251
2562240855536397
2539915996341208
2526415192163880
2574841606101903
2.50740817765541E+015
2455646270920632
2.48476565247957E+015
2447051641333235
2429103513426905
2358069870533121
2348698724104153
2.33588619621822E+015
2.24753975737939E+015
2.20679027130691E+015
2.15841680169899E+015
2127973811887369
2079159139528560
2.05342819509648E+015
1.97521177141815E+015
1.87745888993029E+015
1.81727883470847E+015
1.73555926118806E+015
1.66120424398555E+015
1.5670180455359E+015
1.52810749252914E+015
1.44918161482738E+015
1.37624374086074E+015
1.30975978073417E+015
1.23164924571606E+015
1.12505289628929E+015
1.02859715088905E+015
929954804655382
851996043383580
738246914959333
654483690296783
552163477931670
454257057886491
380847979381899
276844137319378
162618333443066
171582690935712
293883387558868
426909546575135
527293761269329
638524504391479
714646097408561
835676836033548
942387898175548
1.02779239707142E+015
1.13291689412121E+015
1247714320281579
1302028143727519
1.42712500690474E+015
1.54243952268915E+015
1.63737929543733E+015
1.65618688630239E+015
1764117432847864
1902978057041941
1.94803368196314E+015
2016225979141173
2.09731904475532E+015
2.15081046627359E+015
2.1894951234719E+015
2.29827807373209E+015
2330115264236537
2.39128361362035E+015
2473364973396498
2.49297202364619E+015
2.53465685955056E+015
2586242285184980
2643951605001793
2665146985154696
2735704129077515
2.74121033940866E+015
2741298579958840
2.77010029553714E+015
2802537521782797
2833898213316277
2.85407000308711E+015
2.84155749307178E+015
2.82837435487509E+015
2830774497839954
2790748584278934
2.78120095674961E+015
2774600563596248
2724232857554295
2.7121791983999E+015
2.67402398450266E+015
2679653731604060
2646051730096044
2588960094130481
2.53622754134374E+015
2.48266552738532E+015
2.4578522846751E+015
2.400495927059E+015
2.3561815227593E+015
2.31763805044128E+015
2254369575963215
2.15321060923845E+015
2101378110063535
1989047889686160
1.95909904695554E+015
1.87779420402096E+015
1.78072959882449E+015
1.65561508753724E+015
1583194303194646
1.5299623088939E+015
1.42357067754354E+015
1.34485657716221E+015
1.23308933149498E+015
1.15601121091396E+015
1.06252917205473E+015
940508374456744
823065496602020
724146075040791
622909456631871
510953376187254
416207732649473
290366119228749
182398511652205
192955611075574
311399136769323
453764675616494
573545928050951
696392657198613
796240369347722
915400408308921
1.01428982808309E+015
1.13496936931836E+015
1251130994384495
1376639058525544
1.46287125378209E+015
1.53700919923116E+015
1.677729934223E+015
1.77633521942559E+015
1.87047023835614E+015
1.96448172051643E+015
2054663562798977
2141156950084054
2.22309712497991E+015
2321855948739819
2.36078767947862E+015
2437504013803909
2.52745643065599E+015
2.59624876357523E+015
2679777268374310
2720032607365793
2.77532413610771E+015
2.83001562910842E+015
2.86672369798272E+015
2918362067947245
2953217085267797
2.99426658921089E+015
3.00243766415743E+015
3.05559377158502E+015
3037680939898766
3083089527020681
3.07966579367375E+015
3073224233510712
3099925823994760
3129927611055489
3098478678971831
3.09449020610376E+015
3.06127646301653E+015
3.05434075577249E+015
3011102886184968
2988830971319886
2.95319943715776E+015
2.93638078829372E+015
2.8956136541112E+015
2.86255874401429E+015
2.81369112732537E+015
2764735270086280
2.71634415236833E+015
2.62960369154275E+015
2623709222790819
2527562319316202
2420173569748829
2379794693987096
2.2924541974203E+015
2.19590138741487E+015
2.08761258423567E+015
1995030598988270
1915631751937554
1.84348627811152E+015
1775876368564666
1670222428213805
1.57817518070049E+015
1.43346420802957E+015
1361364619289626
1258396721286202
1.14268688783699E+015
994218632539462
897462869268613
782674267163262
682856556801214
560987532949531
442512240657718
328214256011360
189987198967565
218263000866800
342195088781659
491974598654838
617431483276783
727015657732599
866813396569573
995506944572070
1.10281980726629E+015
1.24804081031724E+015
1.36493130232785E+015
1.5263568000136E+015
1.59357668632866E+015
1.66151838034419E+015
1.79814828342975E+015
1919443743705270
2011902192182421
2.12264408265658E+015
2.2165673242667E+015
2.32118532055846E+015
2444192647507448
2.52020305743131E+015
2.61084375057478E+015
2658758369321764
2.67905369586285E+015
2793766411095043
2885907193591551
2.97178289702538E+015
2.99465484763167E+015
3090642918115970
3106755642578585
3.14528146678657E+015
3.16864756447386E+015
3.21019121549796E+015
3266223964861375
3.31685639255386E+015
3327445258575297
3333339727327228
3.38665466774515E+015
3358276506807704
3435539932544098
3.40823830631884E+015
3.37385978796925E+015
3394613965371258
3344810998850448
3.32225671422479E+015
3.24981122252815E+015
3.2676711098843E+015
3.2407930382999E+015
3191713644290554
3164270833185005
3.12999820349563E+015
3.05298185129974E+015
2.99077226342382E+015
2927962639806678
2885148324860015
2833156992694776
2687648325450242
2.66057612465544E+015
2573870960049938
2492424932235078
2415973319560327
2.27358836779212E+015
2.20705499295744E+015
2097566118295819
2.00791371931435E+015
1.94861606959432E+015
1814613970093077
1684730939474173
1.599670578724E+015
1.46609732829662E+015
1.36551192514802E+015
1.23588302731363E+015
1.10279862953425E+015
987445287907752
868396432039778
745168503715344
597092036460613
487153134993078
349706124412863
204966914765887
249914886215869
378310181158762
519869201377301
669925786578040
804605573504654
930516014554518
1.0752587538235E+015
1.19446114824879E+015
1.31329469717432E+015
1.45950575919828E+015
1.60009236855385E+015
1.72280673687624E+015
1.79495397551328E+015
1.93080912656828E+015
2057081353873871
2195177814903401
2.32531497830682E+015
2.41489678484815E+015
2517379359825590
2.61414394715146E+015
2695289957095710
2.82578008269984E+015
2841910455272495
2949316852949902
3.05128763273631E+015
3.11759158214052E+015
3.20244369519227E+015
3.24866409537583E+015
3.26963005009827E+015
3369059502039531
3430421980633739
3478813098351690
3.54790544914154E+015
3552723383181297
3557064818250085
3.58447233313556E+015
3.66424179049703E+015
3.65942385645728E+015
3609250279625716
3646593680461306
3.64961150727741E+015
3.68187225242271E+015
3.64034624950866E+015
3605614768958358
3553658733013190
3.55560002511712E+015
3520392045595853
3463494538840683
3.454758724373E+015
3403314483618869
3.37246558727643E+015
3.30806763375607E+015
3231280706990644
3203431989354274
3136616244759028
3.03658675707655E+015
2977077330036095
2864711813438648
2.76674715463035E+015
2.70983199976515E+015
2632497981588609
2505466885551477
2.40720220887257E+015
2293548380242520
2186089038235004
2066946647383840
1.96624653152001E+015
1.82389687597187E+015
1.69781877787666E+015
1.58961292081464E+015
1460246979819780
1.35523366586322E+015
1195343553750572
1.0636957121281E+015
929811854964092
794457910234114
670336987541872
524290052941249
374235232551514
225096349072632
259012486939284
411370385688681
568666225626074
709572265773291
860477725066749
1.0100472224305E+015
1149292575423357
1.32743789255695E+015
1.41799034515025E+015
1.56945348472083E+015
1716079277330627
1.85017491181506E+015
1.97957085459698E+015
2104837139630537
2.20334888984994E+015
2360293532397622
2.45626395477188E+015
2.56014073044215E+015
2.67144736043745E+015
2777388964981892
2.88770730081519E+015
3052681833429131
3097455088589759
3.19033709170777E+015
3.3235450262574E+015
3.37604815361368E+015
3451546768346499
3501314438647237
3.56813018324248E+015
3.63521064948826E+015
3693996504017257
3707550252524692
3753400042397500
3.86749507377845E+015
3.83657558499586E+015
3898043952250282
3899561689713354
3.89038467249478E+015
3.915692062286E+015
3.90799748631043E+015
3951941280299379
3.90070881686568E+015
3.93228128571958E+015
3.90083235363593E+015
3.90321484849075E+015
3.85316480842944E+015
3810385789702848
3.78827270782809E+015
3739687460899743
3.69687314595308E+015
3648834990435842
3.57458939151556E+015
3.52538646073596E+015
3424421623221593
3.36115314874353E+015
3287684066664814
3201649530240666
3097384496149616
2993984219450317
2897096095354199
2.80356111216487E+015
2.74874608239391E+015
2.58687761714627E+015
2.5002430449809E+015
2.35695803960087E+015
2.23698618757803E+015
2.10270171831621E+015
1.93853899876392E+015
1.85596349190678E+015
1.70253435287821E+015
1.56314428538306E+015
1.43895806468369E+015
1.28808437198829E+015
1.11950433049406E+015
1.00304268755732E+015
836624539542466
710613504265399
561209899135981
410360913794638
234673978389019
274062795177748
453176993552305
609772203521279
757615715723539
934043871750658
1.09103792900644E+015
1.22492884541446E+015
1381712890160814
1.49554849432424E+015
1.68957887530099E+015
1.84636292004734E+015
1.97844137555469E+015
2.13842149302852E+015
2272123574659152
2.3655173729682E+015
2488930606448005
2.67986550892449E+015
2.75282279581217E+015
2.92152107964364E+015
3.00203175762661E+015
3.15797045790225E+015
3202337806532059
3.30992068530982E+015
3.40001428704219E+015
3.52946317415421E+015
3663835883966207
3.69013156791943E+015
3.78094874216326E+015
3786119638403729
3.89675564021767E+015
3.91800396470069E+015
3995549760197650
4068965897946257
4116456962052386
4087090506952943
4.16881890452838E+015
4.19368509156871E+015
4193314481257958
4229210737070618
4.21322154937825E+015
4.24514698043288E+015
4.2268282422158E+015
4.20240325792636E+015
4168395349887519
4.11672168370292E+015
4073236740574901
4.0611830814205E+015
4027281062041879
4.00875054650437E+015
3.94738806791016E+015
3891920058067887
3855917913595013
3.7349754155202E+015
3678077908765035
3600638001928283
3.51361517134214E+015
3414626922151767
3.3530879624572E+015
3.21036769659831E+015
3.10139061712773E+015
3.01900923948097E+015
2910702788191742
2779824404166823
2661705603697730
2.50525510823105E+015
2364776152346696
2.24243945357907E+015
2.12172638093472E+015
1.99330108420477E+015
1.84369805543195E+015
1.65430383296158E+015
1.53892048954803E+015
1.38779266406812E+015
1.21363934942461E+015
1.04376570146475E+015
918679427153558
735959719898704
590096325642452
426928959496175
256261146584715
269896076398314
470189771626741
639036299582515
828614062397251
991931437478832
1.16320458056452E+015
1.33257172776634E+015
1479619310205993
1.61319961987738E+015
1.7985188937405E+015
1.91794365435223E+015
2.10370766058825E+015
2280153464725406
2.41722633537286E+015
2.53774527880681E+015
2672329765939235
2.82660954387152E+015
2.93226877865539E+015
3049999320703701
3.19586095014895E+015
3343858000908519
3.41287975925823E+015
3515997666196958
3.61976855320701E+015
3770236339371579
3.81405659659028E+015
3.92463965407412E+015
4043834989255387
4080613650569833
4.14721761784465E+015
4253035685618844
4269748445822673
4340058516204993
4.38564358442727E+015
4434564145446288
4414321763235313
4476090148360343
4.45575952559919E+015
4529422736888297
4503038812384891
4491991095502530
4.48493185148824E+015
4504415364967678
4415839500698385
4420869212058566
4.36462468537472E+015
4.32352223710152E+015
4.28257862181864E+015
4.26028905884353E+015
4.21535697069258E+015
4162977380106551
4078195859494939
4.00125009973919E+015
3935846203946800
3.85734741050791E+015
3.72641608215288E+015
3597143676141211
3524592295784355
3410514912513444
3.30893239114782E+015
3201420104810201
3068194522150531
2939204485899433
2.79687247846133E+015
2656675892337549
2518332357767519
2394301440436460
2.26033463715529E+015
2126314889544011
1.92242627430131E+015
1.80833124292036E+015
1641936037448549
1454126615259392
1.31110103709688E+015
1146232393143163
991319048060593
798584038360466
639752812849965
462668147129516
275557590097774
287699489802351
499164438683391
676799725436954
857509312958740
1.02853714731493E+015
1.2311762763671E+015
1.41413246829644E+015
1587671628710709
1.71620634372288E+015
1.87869425763279E+015
2.06066392021112E+015
2.2318858837777E+015
2.38046532216845E+015
2.5459869461935E+015
2.69239566704985E+015
2870482745420329
2.98817799124856E+015
3.10529084944562E+015
3.25639396757148E+015
3365618120582565
3538146044291790
3.62199221507151E+015
3.75470600254014E+015
3.89507906976428E+015
4.00700338361084E+015
4076342807941188
4.23231680443691E+015
4177995921746951
4307462456969013
4389967371386016
4432728742002572
4542641171305053
4559971615360133
4675637328534260
4658253940149072
4712610119059099
4768113425121446
4706327391886381
4774184374973735
4752283070419402
4725687368595569
4775013836145413
4754136121973155
4720675305345423
4727399235269034
4681143538865406
4618333915248268
4528575627606582
4531822879853156
4.48383766866603E+015
4.37595477201765E+015
4358889049613109
4.24613527459488E+015
4125210424630105
4040517144568671
3956865102999346
3.7947495642112E+015
3.77053635724219E+015
3.62825729413419E+015
3490090240664517
3.38679585262543E+015
3.2875781780046E+015
3175565623607868
2.95115225639362E+015
2855411259449822
2680942043636668
2534798044430848
2.37981234209713E+015
2216761453477090
2.07543538831102E+015
1.88356513600265E+015
1.72470567351609E+015
1580986524629177
1.38968983589696E+015
1.20682541413981E+015
1.06520109591414E+015
847626371338735
679889909504209
486261905436274
283892792467646
288798967057577
524531832048739
724458446588423
917865849280911
1.0819773893141E+015
1266834282694281
1.48835688948468E+015
1673573804309589
1.84158028222766E+015
2.01389642861646E+015
2.20294298331912E+015
2.38789517649349E+015
2511661372174016
2.6922721302796E+015
2867906121355114
3.02255650959815E+015
3.17177127995019E+015
3.28985478419921E+015
3477736563639511
3.58048386026749E+015
3711221059412122
3.84038757676358E+015
3969059947034030
4.10184432694281E+015
4215992302653863
4.29484405829347E+015
4439470320036219
4.47079571534963E+015
4575854914392284
4676872696236760
4712539526618956
4797621065101174
4813663197123646
4873525586364818
4929999538479130
4970572543451256
5008533628138096
4976819974403903
5038958969839681
5047624191867222
5038676600079110
5002374437735628
5015610520262420
5004421618499772
4942247326843921
4933458568046132
4893185580944612
4777819885641093
4760683570796406
4708339276430453
4659912862492430
4587520315125896
4505156585589179
4393108734972375
4.24781184504827E+015
4.16179495673416E+015
4.01206839119109E+015
3.94161713592848E+015
3.83101643033461E+015
3.71948037490884E+015
3.58443703691549E+015
3431498515345918
3331257250343013
3114962013745196
2951381681824082
2.83763961264385E+015
2673512189311628
2.52288557015674E+015
2.35418728632526E+015
2.15049280029295E+015
2.00736662790324E+015
1.84207442930866E+015
1.65351143282098E+015
1.48605734074702E+015
1288520280306177
1.09642413218934E+015
911664303414359
704955520187946
516360757102199
304332833511020
324776404176401
562064067661710
753064268145326
971860241935205
1.16658595844736E+015
1.36274470149442E+015
1.55603209703867E+015
1.77442922354174E+015
1934762303216277
2.11660842902436E+015
2296989761699485
2.48114778992225E+015
2.64818715141037E+015
2.86089982167093E+015
3036886774947159
3.17455968133583E+015
3.36528280649189E+015
3.45371748588089E+015
3.66683606267228E+015
3817374441276994
3905138492484643
4.0402347748081E+015
4.14315855253643E+015
4310974430866121
4423745853994389
4.49116163433085E+015
4656259703715036
4722775430439674
4762889584550872
4929064188647236
4953189155066070
4993409197837483
5123052214159901
5121869790787507
5149224361342877
5215845976727731
5256260148709535
5287691432683157
5272196392071792
5287903210003586
5271066913029508
5316210778500885
5301615791501342
5217416658520910
5223328775382876
5202009858459724
5146930107038233
5077273016727236
5070919697114376
4962101450634110
4871866664021460
4795820957877531
4695403211774268
4583090639506929
4.49262642746382E+015
4.39508532329638E+015
4289655513942968
4.14123490854254E+015
4047858758343532
3.86901281124152E+015
3.73088105399192E+015
3626721908561081
3.42934544592156E+015
3299225930628176
3.1334925292827E+015
3006337896475323
2.80751428881287E+015
2643669235241222
2.46875881667717E+015
2267111511409007
2.15021043053238E+015
1.94286278572267E+015
1723382065263409
1.54981290306208E+015
1366533750719089
1166870093018937
957886468408920
739330508915527
537081403095141
321012062305781
348341925507101
569894534084560
795845051682921
1013767444026032
1.2395732471221E+015
1.45086171490278E+015
1.63851759853463E+015
1831573803837407
2.0070489619226E+015
2.21720265622798E+015
2449469432408129
2581971442556335
2.80356111216487E+015
2.98886626753996E+015
3.15197010049011E+015
3311103108682218
3.51395048543281E+015
3646470143691056
3809944586951955
3981925419250072
4111127232821598
4.26448930903203E+015
4415168872517028
4.49267937179392E+015
4600915230643009
4753112531591082
4856971659151310
5008163017827345
5030876135443321
5161419205377561
5236335432479204
5304068878796308
5363948916147515
5374255412408377
5422611233906257
5441971210615445
5553277840610748
5567502217299540
5578302860641403
5578744063392295
5619564141904923
5560513565725394
5569725879164041
5474973176382246
5480055832072534
5445324351522232
5395133126580636
5322528801893674
5328176197105105
5196733073559043
5137011869198157
5000697867282237
4970449006681006
4872996143063745
4754877342594654
4653806616420070
4.4986973773161E+015
4324987030234486
4189961340351171
4.06201254259218E+015
3.99870877189404E+015
3763477113227897
3.61512710026761E+015
3471524428906937
3.29645517735257E+015
3.12777454163113E+015
2.97347711558881E+015
2739798490605803
2612149710717421
2445322126549735
2.25463429761375E+015
2.02326757504543E+015
1.81385510136154E+015
1.61352258029104E+015
1421892342279144
1.20399465729008E+015
994211573295448
782856042696630
563324142718261
342120966719509
363806964331405
602169397717890
833327872587793
1.07094202610876E+015
1.27100276628472E+015
1498887516742995
1.68628220834631E+015
1.88453578205461E+015
2.10338999460761E+015
2.36731748019184E+015
2.55264028367696E+015
2.69500758733514E+015
2932815870066502
3146569778819175
3336745812564123
3498878999462307
3.67666605996218E+015
3851558830416189
4.00211485713094E+015
4.14975894568979E+015
4353453431722106
4446300138620044
4591985286964934
4714463170612849
4879667128657249
4983385071337191
5104857012713070
5215051811776123
5284479476656657
5470208186672601
5453689555679165
5547224538868495
5596833376178912
5590550649006194
5669878903616767
5702245537422283
5780056054569784
5780956108181606
5825923492552627
5834835788120668
5812652113805764
5839441944839991