/*--------------------------------*- C++ -*----------------------------------*\
| =========                 |                                                 |
| \\      /  F ield         | OpenFOAM: The Open Source CFD Toolbox           |
|  \\    /   O peration     | Version:  v1806                                 |
|   \\  /    A nd           | Web:      www.OpenFOAM.com                      |
|    \\/     M anipulation  |                                                 |
\*---------------------------------------------------------------------------*/
FoamFile
{
    version     2.0;
    format      ascii;
    class       volScalarField;
    object      dnp1;
}
// * * * * * * * * * * * * * * * * * * * * * * * * * * * * * * * * * * * * * //

dimensions      [0 -3 0 0 0 0 0];

internalField   nonuniform List<scalar> 
6400
(
2.229258E+016
3.327128E+016
5.252535E+016
7.350316E+016
7.610974E+016
7.481122E+016
9.188538E+016
1.198313E+017
1.335933E+017
1.252714E+017
1.051384E+017
1.4322E+017
1.575502E+017
1.538929E+017
1.52301E+017
2.274154E+017
2.104608E+017
1.899283E+017
1.768734E+017
2.259296E+017
2.321872E+017
2.656602E+017
2.485417E+017
2.528552E+017
2.557639E+017
2.756366E+017
2.732391E+017
3.275987E+017
2.996118E+017
2.874813E+017
2.876367E+017
3.16893E+017
2.898623E+017
3.009806E+017
3.249413E+017
3.036345E+017
2.886776E+017
2.660719E+017
3.030071E+017
3.040538E+017
2.717167E+017
2.877143E+017
2.849511E+017
3.156575E+017
3.123386E+017
2.815188E+017
3.034389E+017
2.9449E+017
2.872006E+017
3.224726E+017
2.933282E+017
3.161666E+017
2.908932E+017
2.630592E+017
2.353652E+017
2.196914E+017
2.239527E+017
2.050639E+017
2.388309E+017
2.206594E+017
2.181572E+017
2.206014E+017
2.09659E+017
1.97692E+017
1.97444E+017
1.669498E+017
1.499529E+017
1.762356E+017
1.267135E+017
1.207479E+017
1.087411E+017
1.159936E+017
1.022664E+017
1.064059E+017
9.248182E+016
8.269639E+016
5.747093E+016
3.782259E+016
3.482627E+016
1.569045E+016
3.956106E+016
6.404246E+016
6.425448E+016
9.291869E+016
1.258178E+017
1.269769E+017
1.501123E+017
1.899149E+017
2.198724E+017
2.151856E+017
2.289216E+017
2.423894E+017
2.972397E+017
2.590553E+017
2.882886E+017
3.368725E+017
3.455163E+017
3.50941E+017
3.580555E+017
3.880472E+017
3.97095E+017
4.524833E+017
4.227742E+017
3.831225E+017
3.922263E+017
3.848881E+017
4.432593E+017
4.712194E+017
4.609767E+017
4.615547E+017
4.797274E+017
4.803089E+017
5.196439E+017
4.576535E+017
5.198788E+017
4.710461E+017
4.502226E+017
4.515611E+017
4.643508E+017
5.122366E+017
5.752157E+017
4.954584E+017
4.611329E+017
5.051761E+017
4.852281E+017
5.074569E+017
5.641444E+017
5.462299E+017
4.913113E+017
4.877741E+017
5.230458E+017
4.892959E+017
4.378749E+017
4.560118E+017
4.342589E+017
4.511854E+017
3.736289E+017
3.908229E+017
3.597626E+017
3.82381E+017
3.502304E+017
3.688627E+017
3.315961E+017
3.491611E+017
3.590345E+017
2.658986E+017
2.961037E+017
3.123067E+017
2.674494E+017
2.24872E+017
2.123896E+017
1.855063E+017
2.1584E+017
1.432553E+017
1.478781E+017
1.113887E+017
1.03677E+017
8.867832E+016
5.746892E+016
3.742494E+016
4.046327E+016
7.842846E+016
1.253527E+017
1.293801E+017
1.984661E+017
2.047687E+017
2.089649E+017
2.543598E+017
2.765545E+017
3.239069E+017
3.201663E+017
3.69681E+017
3.31582E+017
4.035088E+017
3.905964E+017
3.518154E+017
3.738767E+017
4.489311E+017
5.011013E+017
4.489191E+017
5.292958E+017
5.703608E+017
5.46753E+017
6.231475E+017
5.875633E+017
5.620747E+017
5.831242E+017
6.019431E+017
5.55016E+017
6.465124E+017
6.073761E+017
6.494878E+017
6.410937E+017
6.772511E+017
6.792972E+017
7.075763E+017
6.491727E+017
6.498604E+017
6.86086E+017
7.137467E+017
6.902583E+017
6.638958E+017
7.445091E+017
7.145149E+017
7.151294E+017
7.021263E+017
7.222759E+017
6.940111E+017
6.674199E+017
6.970183E+017
6.478684E+017
6.191675E+017
6.681698E+017
6.331537E+017
5.855878E+017
5.853116E+017
5.954385E+017
5.148784E+017
4.606132E+017
4.912336E+017
5.161647E+017
5.138052E+017
5.57098E+017
4.93652E+017
4.568745E+017
4.664206E+017
3.908749E+017
3.506666E+017
3.538843E+017
3.077181E+017
2.838355E+017
2.907792E+017
2.630303E+017
2.353672E+017
1.926908E+017
1.369458E+017
1.139167E+017
9.297902E+016
7.1561E+016
4.31703E+016
5.310991E+016
1.056566E+017
1.415397E+017
1.963145E+017
2.155224E+017
2.373991E+017
2.938997E+017
3.479595E+017
3.967908E+017
3.979235E+017
4.052469E+017
4.01327E+017
4.004386E+017
4.831038E+017
4.797218E+017
5.332532E+017
5.321063E+017
5.614369E+017
5.995703E+017
6.980057E+017
7.003774E+017
7.699341E+017
7.418962E+017
7.261421E+017
7.661901E+017
7.771613E+017
7.704857E+017
8.286764E+017
8.133205E+017
8.105692E+017
7.90408E+017
8.043649E+017
8.153012E+017
8.222365E+017
9.008788E+017
8.563432E+017
8.23976E+017
8.862462E+017
9.304812E+017
8.755715E+017
9.286027E+017
8.979488E+017
8.767378E+017
9.414261E+017
9.020694E+017
9.179767E+017
8.387298E+017
9.105414E+017
8.635995E+017
8.758992E+017
7.680204E+017
8.589702E+017
8.432552E+017
7.666885E+017
7.404591E+017
7.232247E+017
6.345961E+017
7.100538E+017
6.878593E+017
6.098944E+017
5.668851E+017
6.041586E+017
5.96749E+017
6.004928E+017
5.512644E+017
5.569429E+017
4.777761E+017
4.401394E+017
3.801258E+017
3.360929E+017
3.894969E+017
3.288998E+017
2.961728E+017
2.704244E+017
2.048361E+017
1.866295E+017
1.742137E+017
1.325351E+017
9.997326E+016
5.358817E+016
5.676427E+016
1.003956E+017
1.924019E+017
2.253915E+017
2.410157E+017
2.508413E+017
3.578865E+017
3.273715E+017
3.893352E+017
4.34759E+017
4.952957E+017
4.665964E+017
5.78263E+017
5.914815E+017
6.266308E+017
6.550029E+017
6.975675E+017
6.935244E+017
7.717024E+017
7.768784E+017
8.41357E+017
8.457256E+017
8.979668E+017
9.255956E+017
8.468423E+017
9.716905E+017
9.484394E+017
9.937127E+017
9.137166E+017
9.734631E+017
1.020943E+018
1.008355E+018
1.082509E+018
1.020425E+018
1.065517E+018
1.081765E+018
1.053996E+018
1.106093E+018
1.098918E+018
1.155245E+018
1.003714E+018
1.025168E+018
1.034047E+018
1.040356E+018
1.095359E+018
1.056752E+018
1.038566E+018
1.041207E+018
1.067167E+018
1.04547E+018
1.046669E+018
9.314631E+017
9.085455E+017
9.062034E+017
9.394506E+017
8.65233E+017
8.193212E+017
8.187441E+017
8.034344E+017
8.491481E+017
6.654788E+017
7.107974E+017
7.386772E+017
7.086444E+017
6.830806E+017
6.175099E+017
5.548127E+017
5.288379E+017
4.534844E+017
4.152619E+017
3.836997E+017
4.217913E+017
3.472902E+017
3.157639E+017
3.185016E+017
2.056068E+017
2.058209E+017
1.404609E+017
1.118402E+017
8.957567E+016
6.715952E+016
1.310087E+017
1.380949E+017
2.31726E+017
2.647466E+017
2.915022E+017
3.831642E+017
3.899506E+017
4.97234E+017
6.340632E+017
6.19796E+017
6.407685E+017
6.904618E+017
7.239487E+017
7.563515E+017
7.816239E+017
8.134605E+017
9.027979E+017
8.829033E+017
9.642557E+017
9.810616E+017
1.003278E+018
9.809396E+017
1.091218E+018
9.811338E+017
1.034891E+018
1.144725E+018
1.121949E+018
1.182127E+018
1.202083E+018
1.15017E+018
1.221087E+018
1.171616E+018
1.252656E+018
1.249593E+018
1.277523E+018
1.326203E+018
1.283189E+018
1.255574E+018
1.241642E+018
1.233334E+018
1.25426E+018
1.310038E+018
1.196325E+018
1.322349E+018
1.246805E+018
1.275307E+018
1.319439E+018
1.267286E+018
1.227169E+018
1.147131E+018
1.138771E+018
1.145359E+018
9.976615E+017
1.095327E+018
9.634632E+017
1.092953E+018
1.001139E+018
9.597825E+017
8.773891E+017
8.351636E+017
8.380123E+017
8.447782E+017
8.839495E+017
7.681882E+017
7.587782E+017
6.811093E+017
6.216172E+017
6.529706E+017
5.759035E+017
5.006722E+017
4.336398E+017
4.059305E+017
3.697909E+017
3.533926E+017
2.489335E+017
2.120655E+017
1.748711E+017
1.191696E+017
7.020791E+016
6.872085E+016
1.214622E+017
1.947546E+017
2.453653E+017
3.079609E+017
3.495702E+017
4.671685E+017
5.072296E+017
5.715563E+017
6.503609E+017
6.719178E+017
7.257043E+017
8.145743E+017
8.38682E+017
8.802323E+017
9.174945E+017
8.619271E+017
9.317046E+017
1.050912E+018
1.064258E+018
1.05782E+018
1.143073E+018
1.107716E+018
1.167042E+018
1.193516E+018
1.259712E+018
1.200839E+018
1.379134E+018
1.340638E+018
1.315589E+018
1.392137E+018
1.444853E+018
1.358956E+018
1.410283E+018
1.440847E+018
1.378444E+018
1.55261E+018
1.581912E+018
1.46432E+018
1.420077E+018
1.577795E+018
1.466099E+018
1.445833E+018
1.449396E+018
1.470267E+018
1.516572E+018
1.39944E+018
1.37844E+018
1.511471E+018
1.409483E+018
1.312501E+018
1.275647E+018
1.24383E+018
1.299905E+018
1.179865E+018
1.201909E+018
1.120883E+018
1.125748E+018
1.0908E+018
1.073849E+018
1.055965E+018
9.509932E+017
9.851162E+017
8.495286E+017
8.696317E+017
8.362241E+017
8.076191E+017
8.000237E+017
6.596258E+017
6.031753E+017
5.715492E+017
4.813839E+017
4.306793E+017
4.541534E+017
3.761166E+017
2.870817E+017
2.110498E+017
2.118378E+017
1.376889E+017
8.375422E+016
9.725388E+016
1.367875E+017
2.369335E+017
2.807223E+017
3.413719E+017
4.718318E+017
4.769501E+017
5.713475E+017
5.925061E+017
6.813269E+017
7.336102E+017
8.26602E+017
8.151187E+017
9.20296E+017
9.575535E+017
9.294162E+017
9.625307E+017
1.042925E+018
1.169913E+018
1.232537E+018
1.189818E+018
1.298556E+018
1.23711E+018
1.251182E+018
1.229873E+018
1.469067E+018
1.291373E+018
1.410202E+018
1.417967E+018
1.470991E+018
1.455925E+018
1.697888E+018
1.615645E+018
1.620195E+018
1.574404E+018
1.632055E+018
1.599011E+018
1.685569E+018
1.685842E+018
1.683435E+018
1.684295E+018
1.652167E+018
1.584991E+018
1.657591E+018
1.643357E+018
1.623321E+018
1.624982E+018
1.580978E+018
1.601624E+018
1.601122E+018
1.505967E+018
1.503392E+018
1.508704E+018
1.48824E+018
1.360551E+018
1.369995E+018
1.387873E+018
1.254065E+018
1.204298E+018
1.229027E+018
1.180289E+018
1.185071E+018
1.0743E+018
1.023275E+018
9.389725E+017
8.915271E+017
8.699715E+017
8.46533E+017
6.900928E+017
7.752803E+017
6.999376E+017
5.882365E+017
5.141297E+017
4.59273E+017
4.186365E+017
3.630195E+017
2.61175E+017
1.811658E+017
1.582238E+017
8.784982E+016
1.047293E+017
1.672866E+017
2.747564E+017
2.985371E+017
3.843477E+017
4.586018E+017
5.088296E+017
5.722915E+017
7.546531E+017
7.670056E+017
8.286863E+017
8.337208E+017
9.161564E+017
1.024856E+018
1.071251E+018
1.025131E+018
1.092493E+018
1.156884E+018
1.282399E+018
1.28453E+018
1.248317E+018
1.318231E+018
1.357797E+018
1.334263E+018
1.457203E+018
1.608427E+018
1.529261E+018
1.553165E+018
1.595149E+018
1.71686E+018
1.651362E+018
1.755092E+018
1.761524E+018
1.77311E+018
1.726885E+018
1.658885E+018
1.750939E+018
1.826332E+018
1.694888E+018
1.83496E+018
1.86664E+018
1.842575E+018
1.712638E+018
1.80653E+018
1.873548E+018
1.779091E+018
1.735742E+018
1.795037E+018
1.687041E+018
1.660591E+018
1.726867E+018
1.745241E+018
1.609191E+018
1.571238E+018
1.549532E+018
1.444345E+018
1.440742E+018
1.482097E+018
1.36206E+018
1.384148E+018
1.284302E+018
1.204902E+018
1.144166E+018
1.126239E+018
1.081687E+018
1.028334E+018
9.34055E+017
8.875461E+017
8.67554E+017
7.861223E+017
7.873638E+017
6.741327E+017
5.91565E+017
5.290432E+017
4.366566E+017
3.922117E+017
3.156048E+017
2.265165E+017
1.639549E+017
1.06833E+017
1.251498E+017
1.973106E+017
2.508654E+017
3.083791E+017
4.184209E+017
4.878515E+017
5.523908E+017
7.39216E+017
8.348734E+017
8.134444E+017
8.787404E+017
8.909535E+017
1.099017E+018
1.099941E+018
1.211038E+018
1.166549E+018
1.251357E+018
1.379663E+018
1.368551E+018
1.398721E+018
1.408527E+018
1.470497E+018
1.626263E+018
1.603821E+018
1.604465E+018
1.630187E+018
1.745173E+018
1.804548E+018
1.831857E+018
1.945269E+018
1.960182E+018
1.946049E+018
1.873495E+018
1.930582E+018
1.880223E+018
1.864211E+018
1.8553E+018
1.934372E+018
1.969172E+018
1.947387E+018
1.995425E+018
2.00265E+018
1.93807E+018
2.006365E+018
1.901368E+018
1.822581E+018
2.013928E+018
1.97283E+018
1.830197E+018
1.824776E+018
1.884143E+018
1.772612E+018
1.661911E+018
1.750577E+018
1.785315E+018
1.712282E+018
1.585509E+018
1.462269E+018
1.479841E+018
1.493712E+018
1.352664E+018
1.29488E+018
1.312243E+018
1.280251E+018
1.212689E+018
1.169742E+018
1.154691E+018
1.148998E+018
9.252261E+017
9.188855E+017
7.959277E+017
7.984435E+017
6.878108E+017
5.592029E+017
4.60408E+017
4.169162E+017
3.234171E+017
2.685876E+017
2.230344E+017
1.180355E+017
1.32008E+017
2.2642E+017
2.989599E+017
3.605125E+017
5.139201E+017
6.108467E+017
5.972112E+017
7.11123E+017
8.222808E+017
8.512584E+017
1.009836E+018
1.127234E+018
1.073445E+018
1.204068E+018
1.262635E+018
1.287404E+018
1.244924E+018
1.404034E+018
1.414173E+018
1.536473E+018
1.542692E+018
1.589064E+018
1.715616E+018
1.859246E+018
1.793852E+018
1.856162E+018
1.928112E+018
1.867577E+018
1.924561E+018
2.043349E+018
2.118275E+018
2.06742E+018
2.053357E+018
2.083153E+018
2.102077E+018
2.173439E+018
2.092619E+018
2.133678E+018
2.020041E+018
2.09558E+018
2.210767E+018
2.142608E+018
2.141897E+018
2.069266E+018
2.107513E+018
2.043811E+018
2.006834E+018
2.059192E+018
1.982493E+018
2.054904E+018
1.986822E+018
1.963542E+018
1.824941E+018
1.858508E+018
1.900731E+018
1.846532E+018
1.773547E+018
1.609357E+018
1.633662E+018
1.71221E+018
1.570865E+018
1.540937E+018
1.37326E+018
1.445177E+018
1.325929E+018
1.236255E+018
1.189726E+018
1.149115E+018
9.710888E+017
9.670028E+017
8.967648E+017
8.306361E+017
6.925304E+017
5.939058E+017
5.908727E+017
4.436567E+017
3.511024E+017
2.91146E+017
2.235876E+017
1.407757E+017
1.226709E+017
2.583734E+017
3.125016E+017
4.683964E+017
5.42198E+017
6.320135E+017
7.512522E+017
7.415232E+017
8.290459E+017
9.234829E+017
1.03369E+018
1.132793E+018
1.217833E+018
1.268981E+018
1.411997E+018
1.393221E+018
1.377366E+018
1.448913E+018
1.475337E+018
1.470688E+018
1.680796E+018
1.801315E+018
1.792557E+018
1.858558E+018
1.922246E+018
1.893754E+018
2.057486E+018
1.9969E+018
2.11638E+018
2.120806E+018
2.184565E+018
2.164434E+018
2.177502E+018
2.23073E+018
2.242203E+018
2.239616E+018
2.348994E+018
2.334571E+018
2.278805E+018
2.267542E+018
2.390908E+018
2.255381E+018
2.300032E+018
2.276745E+018
2.225975E+018
2.231904E+018
2.248894E+018
2.25958E+018
2.152161E+018
2.312858E+018
2.301968E+018
2.041053E+018
1.952056E+018
1.952294E+018
1.990212E+018
1.945521E+018
1.890332E+018
1.883945E+018
1.751354E+018
1.759067E+018
1.659961E+018
1.593053E+018
1.49822E+018
1.373398E+018
1.446005E+018
1.299396E+018
1.203775E+018
1.160795E+018
1.115303E+018
9.051758E+017
9.229129E+017
8.060843E+017
7.133928E+017
6.377388E+017
5.468616E+017
5.159216E+017
3.696035E+017
3.526856E+017
2.409279E+017
1.151249E+017
1.425096E+017
2.632306E+017
3.714756E+017
4.514429E+017
5.706039E+017
6.97148E+017
7.361819E+017
7.619923E+017
9.518873E+017
1.082702E+018
1.120746E+018
1.155448E+018
1.264605E+018
1.530064E+018
1.401742E+018
1.555636E+018
1.671887E+018
1.55641E+018
1.580709E+018
1.654181E+018
1.764806E+018
1.899749E+018
2.004542E+018
1.919004E+018
1.995749E+018
2.088952E+018
2.07633E+018
2.279964E+018
2.305223E+018
2.353563E+018
2.320275E+018
2.4561E+018
2.378114E+018
2.389763E+018
2.520702E+018
2.416582E+018
2.40274E+018
2.428887E+018
2.480688E+018
2.533623E+018
2.493596E+018
2.511695E+018
2.470515E+018
2.500261E+018
2.431893E+018
2.297862E+018
2.357352E+018
2.260549E+018
2.35039E+018
2.2545E+018
2.362321E+018
2.149819E+018
2.125532E+018
2.156254E+018
2.133744E+018
2.114215E+018
2.092183E+018
1.936791E+018
1.778722E+018
1.829728E+018
1.739573E+018
1.678303E+018
1.668703E+018
1.54243E+018
1.442402E+018
1.378543E+018
1.285765E+018
1.175301E+018
1.113781E+018
1.087559E+018
9.532565E+017
8.303907E+017
7.830597E+017
6.869822E+017
6.268777E+017
5.51791E+017
4.1215E+017
2.93766E+017
2.308404E+017
1.49725E+017
1.516194E+017
2.683095E+017
3.863633E+017
4.548471E+017
5.790546E+017
7.026326E+017
8.342796E+017
8.842568E+017
9.927166E+017
9.874757E+017
1.204549E+018
1.203393E+018
1.407463E+018
1.486105E+018
1.508568E+018
1.69531E+018
1.746601E+018
1.81214E+018
1.795203E+018
1.857802E+018
1.991916E+018
1.934195E+018
2.099307E+018
2.122331E+018
2.235355E+018
2.249738E+018
2.383824E+018
2.465108E+018
2.38859E+018
2.549062E+018
2.562132E+018
2.513019E+018
2.431741E+018
2.680832E+018
2.614421E+018
2.730126E+018
2.553911E+018
2.583257E+018
2.559527E+018
2.669124E+018
2.601315E+018
2.527868E+018
2.641084E+018
2.726957E+018
2.610088E+018
2.532034E+018
2.558161E+018
2.520869E+018
2.452843E+018
2.558817E+018
2.502777E+018
2.227388E+018
2.470102E+018
2.265775E+018
2.320358E+018
2.255732E+018
2.210287E+018
2.060636E+018
2.044907E+018
1.955967E+018
1.977018E+018
1.804811E+018
1.768153E+018
1.707071E+018
1.576936E+018
1.386047E+018
1.329183E+018
1.302436E+018
1.306112E+018
1.146489E+018
9.745372E+017
8.876268E+017
7.441082E+017
7.324318E+017
6.336847E+017
5.789171E+017
4.67548E+017
4.152922E+017
2.54248E+017
1.697346E+017
1.913615E+017
2.782212E+017
4.094647E+017
5.041017E+017
5.903686E+017
7.454308E+017
8.406432E+017
8.942951E+017
1.078972E+018
1.124404E+018
1.199696E+018
1.345317E+018
1.396987E+018
1.532571E+018
1.602435E+018
1.781231E+018
1.933667E+018
1.830083E+018
1.890972E+018
1.881135E+018
2.082685E+018
2.067344E+018
2.200392E+018
2.303836E+018
2.397498E+018
2.341423E+018
2.47877E+018
2.645808E+018
2.604455E+018
2.536362E+018
2.630485E+018
2.723332E+018
2.726881E+018
2.752274E+018
2.695769E+018
2.689559E+018
2.810504E+018
2.689097E+018
2.775415E+018
2.758202E+018
2.656314E+018
2.712974E+018
2.660086E+018
2.704929E+018
2.749498E+018
2.682346E+018
2.647376E+018
2.642116E+018
2.81242E+018
2.741286E+018
2.519727E+018
2.626643E+018
2.616329E+018
2.458567E+018
2.384258E+018
2.253439E+018
2.229197E+018
2.155474E+018
2.200816E+018
2.133572E+018
2.013667E+018
2.0178E+018
1.8251E+018
1.706429E+018
1.641773E+018
1.500393E+018
1.45299E+018
1.353975E+018
1.319729E+018
1.141147E+018
1.082E+018
1.038138E+018
9.433567E+017
8.159233E+017
6.968353E+017
6.077301E+017
5.777371E+017
3.74225E+017
2.921755E+017
1.785143E+017
1.832607E+017
2.781449E+017
4.257662E+017
5.841604E+017
6.174072E+017
7.308336E+017
8.21874E+017
9.780567E+017
1.149115E+018
1.148242E+018
1.293952E+018
1.450506E+018
1.504827E+018
1.616408E+018
1.675401E+018
1.73023E+018
1.771788E+018
1.924556E+018
1.962123E+018
2.243604E+018
2.156604E+018
2.32276E+018
2.308719E+018
2.331769E+018
2.46341E+018
2.464413E+018
2.701366E+018
2.627008E+018
2.573729E+018
2.696271E+018
2.861073E+018
2.745628E+018
2.89495E+018
2.944089E+018
2.776713E+018
2.796744E+018
2.842166E+018
2.897396E+018
2.854582E+018
2.98896E+018
2.996602E+018
2.932201E+018
2.937009E+018
2.969181E+018
3.071894E+018
2.884916E+018
2.867922E+018
2.822308E+018
2.935421E+018
2.763238E+018
2.703515E+018
2.762056E+018
2.661596E+018
2.658295E+018
2.485205E+018
2.537499E+018
2.359975E+018
2.325243E+018
2.321182E+018
2.432695E+018
2.141449E+018
2.013943E+018
1.835931E+018
1.871765E+018
1.71012E+018
1.80882E+018
1.513744E+018
1.450837E+018
1.344865E+018
1.242393E+018
1.224881E+018
1.034102E+018
9.292273E+017
7.573218E+017
6.58715E+017
6.290063E+017
5.712392E+017
3.836917E+017
2.677274E+017
1.636958E+017
2.205988E+017
2.863134E+017
4.231187E+017
5.835523E+017
7.550009E+017
8.293712E+017
9.436008E+017
1.072453E+018
1.166211E+018
1.187516E+018
1.422867E+018
1.504541E+018
1.589299E+018
1.637888E+018
1.683545E+018
1.817931E+018
1.939543E+018
1.989557E+018
2.105218E+018
2.225411E+018
2.276874E+018
2.359579E+018
2.52956E+018
2.494043E+018
2.591188E+018
2.732835E+018
2.827382E+018
2.88113E+018
2.807706E+018
2.855806E+018
2.936883E+018
2.84699E+018
2.987704E+018
3.042042E+018
3.148722E+018
2.99775E+018
3.016897E+018
3.149266E+018
3.082263E+018
3.078475E+018
3.086557E+018
3.160932E+018
3.038741E+018
3.127683E+018
3.247947E+018
3.205295E+018
3.082946E+018
3.092257E+018
2.987611E+018
3.068777E+018
2.796668E+018
2.884616E+018
2.843289E+018
2.64278E+018
2.661538E+018
2.659152E+018
2.628044E+018
2.412275E+018
2.327734E+018
2.267851E+018
2.25831E+018
2.095931E+018
2.101455E+018
2.032738E+018
1.890019E+018
1.755005E+018
1.58801E+018
1.502667E+018
1.477571E+018
1.251615E+018
1.262209E+018
1.181466E+018
1.005577E+018
9.002611E+017
7.51796E+017
6.65111E+017
6.140878E+017
4.354284E+017
3.110165E+017
2.118262E+017
2.139909E+017
3.154569E+017
4.775057E+017
5.843736E+017
6.906052E+017
8.347189E+017
9.120797E+017
1.136274E+018
1.160265E+018
1.295999E+018
1.489648E+018
1.612312E+018
1.575653E+018
1.663261E+018
1.730458E+018
2.003027E+018
2.056382E+018
2.034294E+018
2.175485E+018
2.182952E+018
2.416189E+018
2.601625E+018
2.658899E+018
2.560669E+018
2.714889E+018
2.844957E+018
2.784492E+018
2.831495E+018
2.986941E+018
3.005849E+018
3.132278E+018
3.136592E+018
3.100279E+018
3.115952E+018
3.247708E+018
3.377978E+018
3.287729E+018
3.270139E+018
3.274148E+018
3.231097E+018
3.300937E+018
3.193357E+018
3.284834E+018
3.327513E+018
3.268981E+018
3.257235E+018
3.217903E+018
3.124465E+018
3.113899E+018
3.004271E+018
3.071818E+018
2.840565E+018
2.900689E+018
2.833893E+018
2.930952E+018
2.859205E+018
2.756954E+018
2.50759E+018
2.399233E+018
2.364364E+018
2.388433E+018
2.251404E+018
2.170779E+018
2.040571E+018
1.851518E+018
1.792694E+018
1.678298E+018
1.665835E+018
1.540222E+018
1.348004E+018
1.313473E+018
1.155646E+018
1.102017E+018
1.026308E+018
7.617879E+017
6.871352E+017
5.814564E+017
4.507607E+017
3.55406E+017
2.477912E+017
2.119946E+017
3.393031E+017
5.433831E+017
6.600813E+017
7.907495E+017
9.069787E+017
1.012655E+018
1.25877E+018
1.340705E+018
1.376862E+018
1.584403E+018
1.614769E+018
1.731837E+018
1.720958E+018
1.87466E+018
2.021458E+018
2.072602E+018
2.180132E+018
2.329471E+018
2.256914E+018
2.479341E+018
2.591434E+018
2.524754E+018
2.71412E+018
2.880621E+018
2.941955E+018
2.88169E+018
3.117494E+018
3.002762E+018
3.242333E+018
3.133042E+018
3.127817E+018
3.163108E+018
3.153479E+018
3.203909E+018
3.249507E+018
3.331717E+018
3.40389E+018
3.393865E+018
3.29889E+018
3.390591E+018
3.505512E+018
3.277773E+018
3.404089E+018
3.456276E+018
3.335395E+018
3.268099E+018
3.355736E+018
3.220324E+018
3.099955E+018
3.187488E+018
3.019312E+018
3.130739E+018
3.100099E+018
2.929083E+018
2.852803E+018
2.739005E+018
2.594823E+018
2.522635E+018
2.411531E+018
2.484665E+018
2.325711E+018
2.217293E+018
2.11134E+018
2.030068E+018
1.995226E+018
1.868319E+018
1.711279E+018
1.621587E+018
1.353678E+018
1.324932E+018
1.259226E+018
1.142726E+018
9.960568E+017
8.40815E+017
7.746432E+017
6.313319E+017
5.180036E+017
3.932856E+017
2.181957E+017
2.096022E+017
3.570721E+017
5.043756E+017
6.619926E+017
8.555593E+017
8.587894E+017
1.084062E+018
1.20526E+018
1.365273E+018
1.458761E+018
1.637765E+018
1.653417E+018
1.902376E+018
1.842075E+018
2.021951E+018
2.040464E+018
2.04522E+018
2.193175E+018
2.312703E+018
2.467891E+018
2.524738E+018
2.782466E+018
2.797964E+018
2.864614E+018
2.859114E+018
2.955571E+018
3.07264E+018
3.22401E+018
3.412024E+018
3.324632E+018
3.195313E+018
3.244082E+018
3.342081E+018
3.380028E+018
3.312244E+018
3.395295E+018
3.425046E+018
3.482284E+018
3.633371E+018
3.565348E+018
3.610274E+018
3.715047E+018
3.451721E+018
3.434838E+018
3.47577E+018
3.386058E+018
3.479884E+018
3.313024E+018
3.315601E+018
3.279375E+018
3.310085E+018
3.19296E+018
3.169801E+018
3.139245E+018
2.886081E+018
2.910845E+018
2.923414E+018
2.664322E+018
2.661527E+018
2.511267E+018
2.55394E+018
2.499635E+018
2.359139E+018
2.277028E+018
2.196028E+018
1.904095E+018
1.932806E+018
1.822459E+018
1.585036E+018
1.454989E+018
1.425102E+018
1.245934E+018
1.180271E+018
1.025303E+018
8.206299E+017
7.028515E+017
5.904009E+017
4.989409E+017
3.478942E+017
2.420692E+017
2.561258E+017
4.047758E+017
5.365324E+017
7.220455E+017
8.403137E+017
9.741036E+017
1.219612E+018
1.222467E+018
1.446646E+018
1.513364E+018
1.589202E+018
1.734138E+018
1.767103E+018
1.927618E+018
1.954554E+018
2.237725E+018
2.307207E+018
2.312977E+018
2.399815E+018
2.610918E+018
2.627417E+018
2.789993E+018
2.893022E+018
2.887871E+018
2.988015E+018
3.118385E+018
3.158944E+018
3.204454E+018
3.414901E+018
3.4807E+018
3.36437E+018
3.347369E+018
3.488244E+018
3.511993E+018
3.515245E+018
3.606445E+018
3.623611E+018
3.627919E+018
3.695421E+018
3.628926E+018
3.702413E+018
3.65731E+018
3.770348E+018
3.703749E+018
3.53389E+018
3.534731E+018
3.56934E+018
3.502244E+018
3.508314E+018
3.493647E+018
3.504411E+018
3.249587E+018
3.190894E+018
3.210449E+018
3.177663E+018
3.119717E+018
2.874197E+018
2.728994E+018
2.753547E+018
2.721895E+018
2.584974E+018
2.562018E+018
2.400945E+018
2.36183E+018
2.23628E+018
2.124624E+018
1.916453E+018
1.899341E+018
1.748639E+018
1.595602E+018
1.436416E+018
1.355609E+018
1.125074E+018
1.034182E+018
9.119463E+017
7.128261E+017
6.306009E+017
5.847087E+017
4.187992E+017
2.136306E+017
2.089263E+017
3.438859E+017
5.752779E+017
6.965244E+017
8.620751E+017
1.131569E+018
1.11234E+018
1.312901E+018
1.388854E+018
1.510507E+018
1.667642E+018
1.864407E+018
1.881503E+018
1.987996E+018
2.185081E+018
2.342325E+018
2.400249E+018
2.497421E+018
2.459581E+018
2.717828E+018
2.732439E+018
2.688691E+018
3.02394E+018
3.220182E+018
2.959133E+018
3.303638E+018
3.346998E+018
3.350778E+018
3.322689E+018
3.543583E+018
3.497215E+018
3.679607E+018
3.72606E+018
3.632534E+018
3.638115E+018
3.561072E+018
3.765954E+018
3.65368E+018
3.691004E+018
3.637717E+018
3.708625E+018
3.68846E+018
3.773194E+018
3.777836E+018
3.533878E+018
3.697531E+018
3.639123E+018
3.509486E+018
3.596675E+018
3.524805E+018
3.541207E+018
3.250357E+018
3.450908E+018
3.104871E+018
3.175242E+018
3.03427E+018
3.058283E+018
3.01616E+018
2.779838E+018
2.807762E+018
2.883376E+018
2.558128E+018
2.451947E+018
2.396637E+018
2.209788E+018
2.242132E+018
2.084959E+018
1.836891E+018
1.690427E+018
1.626271E+018
1.439908E+018
1.368165E+018
1.095673E+018
1.10166E+018
1.015632E+018
8.550311E+017
7.777299E+017
5.649305E+017
4.122921E+017
2.238177E+017
2.20625E+017
4.093644E+017
5.205337E+017
7.596704E+017
8.127534E+017
1.025602E+018
1.163585E+018
1.269261E+018
1.556169E+018
1.569013E+018
1.780566E+018
1.914298E+018
2.001483E+018
2.126384E+018
2.26853E+018
2.455236E+018
2.402371E+018
2.456153E+018
2.653474E+018
2.826857E+018
2.859139E+018
2.942181E+018
3.042425E+018
3.148766E+018
3.22684E+018
3.303349E+018
3.243622E+018
3.369802E+018
3.49497E+018
3.563299E+018
3.686715E+018
3.801872E+018
3.730869E+018
3.764226E+018
3.708387E+018
3.65236E+018
3.764559E+018
3.711365E+018
3.859882E+018
3.779691E+018
3.835974E+018
3.87714E+018
3.835725E+018
3.94963E+018
3.816828E+018
3.864239E+018
3.861172E+018
3.775635E+018
3.668126E+018
3.641449E+018
3.659616E+018
3.4659E+018
3.484765E+018
3.30076E+018
3.285217E+018
3.104113E+018
3.104782E+018
2.952842E+018
2.929534E+018
2.884785E+018
2.824925E+018
2.698889E+018
2.518585E+018
2.42228E+018
2.182948E+018
2.190864E+018
2.126052E+018
1.986886E+018
1.798487E+018
1.623506E+018
1.547637E+018
1.421602E+018
1.229151E+018
1.076444E+018
9.540359E+017
7.982435E+017
7.313758E+017
6.004298E+017
4.182209E+017
2.112538E+017
2.193929E+017
3.958264E+017
5.643371E+017
7.435119E+017
8.964685E+017
9.432115E+017
1.1912E+018
1.330511E+018
1.540589E+018
1.640416E+018
1.84269E+018
1.930706E+018
2.051411E+018
2.245236E+018
2.31019E+018
2.465902E+018
2.60918E+018
2.581286E+018
2.667671E+018
2.920603E+018
2.898743E+018
3.058733E+018
3.025473E+018
3.079742E+018
3.278553E+018
3.440407E+018
3.373864E+018
3.642216E+018
3.831668E+018
3.693724E+018
3.79946E+018
3.699202E+018
3.684118E+018
3.801538E+018
3.814953E+018
3.753165E+018
3.986834E+018
3.956926E+018
3.874363E+018
3.886783E+018
3.83988E+018
3.929585E+018
3.964272E+018
3.848172E+018
4.018263E+018
3.928689E+018
3.880007E+018
3.995516E+018
4.000184E+018
3.871544E+018
3.535608E+018
3.550203E+018
3.72846E+018
3.60468E+018
3.555588E+018
3.128446E+018
3.232631E+018
3.145684E+018
3.003346E+018
2.926164E+018
2.890968E+018
2.769702E+018
2.646425E+018
2.465144E+018
2.390389E+018
2.261248E+018
2.196808E+018
1.96789E+018
1.770801E+018
1.678016E+018
1.613351E+018
1.33573E+018
1.259557E+018
1.219795E+018
1.004556E+018
8.540152E+017
7.465828E+017
6.123308E+017
3.766358E+017
2.420616E+017
2.369927E+017
4.356845E+017
6.612723E+017
7.734499E+017
8.612367E+017
1.035189E+018
1.226868E+018
1.456643E+018
1.518297E+018
1.747492E+018
1.865467E+018
1.98244E+018
2.133495E+018
2.248549E+018
2.294156E+018
2.35814E+018
2.459833E+018
2.623574E+018
2.714939E+018
2.943895E+018
3.011577E+018
3.371718E+018
3.233844E+018
3.244528E+018
3.346495E+018
3.529257E+018
3.627936E+018
3.660124E+018
3.750677E+018
3.868885E+018
3.819426E+018
3.710573E+018
3.736242E+018
3.85142E+018
3.88032E+018
3.96842E+018
4.051035E+018
4.074972E+018
3.974178E+018
3.960935E+018
4.045874E+018
4.011578E+018
4.10086E+018
4.060776E+018
3.887174E+018
4.212923E+018
3.998439E+018
4.042535E+018
3.929974E+018
3.90135E+018
3.703555E+018
3.826431E+018
3.720593E+018
3.607885E+018
3.420861E+018
3.612042E+018
3.385983E+018
3.183106E+018
3.154508E+018
3.004551E+018
2.909373E+018
2.824043E+018
2.753528E+018
2.573783E+018
2.400944E+018
2.362422E+018
2.287774E+018
1.997426E+018
1.970122E+018
1.654224E+018
1.643487E+018
1.454429E+018
1.343209E+018
1.283432E+018
1.079831E+018
8.652388E+017
7.72102E+017
5.416574E+017
3.968232E+017
2.403965E+017
2.713179E+017
4.562918E+017
6.239051E+017
8.32988E+017
9.422766E+017
1.1631E+018
1.241865E+018
1.514018E+018
1.587047E+018
1.760781E+018
1.855587E+018
1.982199E+018
2.078185E+018
2.239771E+018
2.417791E+018
2.506569E+018
2.569969E+018
2.733538E+018
2.755964E+018
3.035328E+018
3.17874E+018
3.272652E+018
3.464139E+018
3.335369E+018
3.508744E+018
3.650462E+018
3.812081E+018
3.694558E+018
3.897188E+018
4.00376E+018
3.838306E+018
3.920398E+018
3.799242E+018
3.982228E+018
4.097282E+018
4.160004E+018
4.114609E+018
4.029152E+018
4.148791E+018
4.203455E+018
4.211454E+018
4.149569E+018
4.351423E+018
4.238685E+018
4.19813E+018
4.206119E+018
4.201215E+018
4.120943E+018
3.862853E+018
4.038859E+018
3.856328E+018
3.762534E+018
3.748834E+018
3.645313E+018
3.600265E+018
3.545696E+018
3.570346E+018
3.343562E+018
3.197822E+018
3.000462E+018
3.033619E+018
2.934891E+018
2.869672E+018
2.612057E+018
2.490877E+018
2.417368E+018
2.244549E+018
2.095036E+018
2.019746E+018
1.848224E+018
1.706912E+018
1.648688E+018
1.445389E+018
1.121617E+018
1.156029E+018
9.564806E+017
7.64013E+017
6.026094E+017
4.423289E+017
2.759454E+017
2.652095E+017
4.809299E+017
5.908558E+017
7.928866E+017
1.003464E+018
1.114957E+018
1.270053E+018
1.465734E+018
1.60707E+018
1.827444E+018
1.920851E+018
2.013602E+018
2.110664E+018
2.205636E+018
2.349189E+018
2.65618E+018
2.669019E+018
2.75565E+018