/*--------------------------------*- C++ -*----------------------------------*\
| =========                 |                                                 |
| \\      /  F ield         | OpenFOAM: The Open Source CFD Toolbox           |
|  \\    /   O peration     | Version:  v1806                                 |
|   \\  /    A nd           | Web:      www.OpenFOAM.com                      |
|    \\/     M anipulation  |                                                 |
\*---------------------------------------------------------------------------*/
FoamFile
{
    version     2.0;
    format      ascii;
    class       volScalarField;
    object      dnp2;
}
// * * * * * * * * * * * * * * * * * * * * * * * * * * * * * * * * * * * * * //

dimensions      [0 -3 0 0 0 0 0];

internalField   nonuniform List<scalar> 
6400
(
4.333764E+016
6.468065E+016
1.021113E+017
1.42893E+017
1.47908E+017
1.454017E+017
1.786287E+017
2.328217E+017
2.596804E+017
2.435324E+017
2.043716E+017
2.779789E+017
3.0625E+017
2.987942E+017
2.96079E+017
4.420731E+017
4.090543E+017
3.692099E+017
3.433115E+017
4.384066E+017
4.512691E+017
5.164417E+017
4.831104E+017
4.915541E+017
4.97141E+017
5.35839E+017
5.311873E+017
6.362841E+017
5.822424E+017
5.588528E+017
5.590712E+017
6.157976E+017
5.634845E+017
5.843504E+017
6.316373E+017
5.902771E+017
5.609687E+017
5.172541E+017
5.889142E+017
5.910427E+017
5.275105E+017
5.593276E+017
5.533135E+017
6.134782E+017
6.071063E+017
5.46981E+017
5.89565E+017
5.72487E+017
5.581431E+017
6.264737E+017
5.698966E+017
6.143846E+017
5.652377E+017
5.111854E+017
4.574883E+017
4.27081E+017
4.35319E+017
3.985096E+017
4.642832E+017
4.285241E+017
4.241015E+017
4.288249E+017
4.07319E+017
3.841956E+017
3.837281E+017
3.243699E+017
2.915134E+017
3.424009E+017
2.46336E+017
2.345453E+017
2.113706E+017
2.25129E+017
1.987352E+017
2.068572E+017
1.797882E+017
1.607649E+017
1.117257E+017
7.352856E+016
6.77036E+016
3.047519E+016
7.690822E+016
1.24501E+017
1.248895E+017
1.80344E+017
2.445634E+017
2.468145E+017
2.918165E+017
3.691117E+017
4.270956E+017
4.183291E+017
4.449333E+017
4.710444E+017
5.772919E+017
5.035661E+017
5.603288E+017
6.54874E+017
6.71428E+017
6.820583E+017
6.958443E+017
7.54114E+017
7.718505E+017
8.793122E+017
8.216288E+017
7.447908E+017
7.623408E+017
7.482372E+017
8.615841E+017
9.154567E+017
8.959962E+017
8.971846E+017
9.325786E+017
9.333673E+017
1.009952E+018
8.896959E+017
1.010604E+018
9.151855E+017
8.749961E+017
8.778522E+017
9.025387E+017
9.956987E+017
1.117418E+018
9.627385E+017
8.962165E+017
9.819072E+017
9.4311E+017
9.861015E+017
1.095891E+018
1.061791E+018
9.551281E+017
9.481185E+017
1.016594E+018
9.508228E+017
8.511567E+017
8.860958E+017
8.440678E+017
8.765196E+017
7.261044E+017
7.595053E+017
6.99123E+017
7.428013E+017
6.808278E+017
7.16875E+017
6.444851E+017
6.787029E+017
6.979582E+017
5.168937E+017
5.754665E+017
6.071363E+017
5.198341E+017
4.3714E+017
4.128326E+017
3.606314E+017
4.195543E+017
2.784754E+017
2.874807E+017
2.164644E+017
2.015135E+017
1.723613E+017
1.117218E+017
7.275552E+016
7.866214E+016
1.524679E+017
2.432862E+017
2.513717E+017
3.855957E+017
3.980305E+017
4.06106E+017
4.94176E+017
5.372315E+017
6.294286E+017
6.220581E+017
7.183027E+017
6.442225E+017
7.840742E+017
7.589606E+017
6.839135E+017
7.26636E+017
8.727123E+017
9.737512E+017
8.720745E+017
1.028809E+018
1.108567E+018
1.062711E+018
1.211392E+018
1.142014E+018
1.0926E+018
1.133591E+018
1.169983E+018
1.078545E+018
1.256632E+018
1.179995E+018
1.262222E+018
1.24592E+018
1.316273E+018
1.32044E+018
1.375232E+018
1.261952E+018
1.262562E+018
1.332176E+018
1.387002E+018
1.341568E+018
1.288899E+018
1.447239E+018
1.388659E+018
1.390002E+018
1.364566E+018
1.402919E+018
1.34895E+018
1.297478E+018
1.354535E+018
1.258362E+018
1.203102E+018
1.298634E+018
1.230708E+018
1.138091E+018
1.137669E+018
1.157491E+018
1.000687E+018
8.953281E+017
9.546591E+017
1.003141E+018
9.986103E+017
1.082645E+018
9.595061E+017
8.879824E+017
9.064668E+017
7.598609E+017
6.815685E+017
6.877287E+017
5.982159E+017
5.51566E+017
5.651143E+017
5.110406E+017
4.572556E+017
3.745682E+017
2.662037E+017
2.214585E+017
1.807548E+017
1.386887E+017
8.376159E+016
1.032477E+017
2.053947E+017
2.749122E+017
3.81364E+017
4.18647E+017
4.615044E+017
5.713522E+017
6.762949E+017
7.711218E+017
7.734772E+017
7.874105E+017
7.797481E+017
7.777011E+017
9.389623E+017
9.324211E+017
1.036561E+018
1.03396E+018
1.091406E+018
1.165377E+018
1.35672E+018
1.360838E+018
1.496748E+018
1.442238E+018
1.411146E+018
1.488935E+018
1.510626E+018
1.497342E+018
1.610802E+018
1.580887E+018
1.575044E+018
1.536387E+018
1.563614E+018
1.584919E+018
1.598292E+018
1.750598E+018
1.664263E+018
1.600541E+018
1.722453E+018
1.808637E+018
1.701732E+018
1.804251E+018
1.745132E+018
1.70421E+018
1.829252E+018
1.753608E+018
1.784034E+018
1.630158E+018
1.769456E+018
1.678156E+018
1.702734E+018
1.492424E+018
1.669527E+018
1.638816E+018
1.489775E+018
1.439194E+018
1.405575E+018
1.233567E+018
1.379842E+018
1.336713E+018
1.185265E+018
1.101515E+018
1.17432E+018
1.160057E+018
1.16718E+018
1.071143E+018
1.082341E+018
9.285063E+017
8.553022E+017
7.388113E+017
6.52941E+017
7.569293E+017
6.393796E+017
5.756027E+017
5.254007E+017
3.97799E+017
3.621981E+017
3.386262E+017
2.574725E+017
1.94345E+017
1.041775E+017
1.103361E+017
1.951664E+017
3.739289E+017
4.381697E+017
4.685438E+017
4.875635E+017
6.957328E+017
6.363935E+017
7.567289E+017
8.451092E+017
9.628117E+017
9.070081E+017
1.124165E+018
1.149493E+018
1.216855E+018
1.272947E+018
1.355692E+018
1.347753E+018
1.499441E+018
1.510261E+018
1.635606E+018
1.644068E+018
1.745437E+018
1.799058E+018
1.646121E+018
1.888384E+018
1.84349E+018
1.931051E+018
1.776138E+018
1.89212E+018
1.984209E+018
1.95967E+018
2.104265E+018
1.983415E+018
2.070604E+018
2.102246E+018
2.048495E+018
2.149972E+018
2.135889E+018
2.24566E+018
1.950754E+018
1.992677E+018
2.009148E+018
2.021793E+018
2.128964E+018
2.053813E+018
2.018664E+018
2.023606E+018
2.073694E+018
2.03179E+018
2.03404E+018
1.810387E+018
1.765819E+018
1.761034E+018
1.82577E+018
1.681908E+018
1.592552E+018
1.59127E+018
1.561125E+018
1.650472E+018
1.293206E+018
1.380936E+018
1.435605E+018
1.377431E+018
1.327361E+018
1.200346E+018
1.078347E+018
1.02776E+018
8.806766E+017
8.070101E+017
7.455945E+017
8.1973E+017
6.746884E+017
6.134841E+017
6.189052E+017
3.994967E+017
4.000968E+017
2.721175E+017
2.17043E+017
1.738111E+017
1.303215E+017
2.546372E+017
2.682201E+017
4.504774E+017
5.144892E+017
5.665233E+017
7.44836E+017
7.579027E+017
9.665485E+017
1.232344E+018
1.204827E+018
1.245184E+018
1.341996E+018
1.40718E+018
1.470156E+018
1.519083E+018
1.581295E+018
1.75502E+018
1.716155E+018
1.874321E+018
1.906891E+018
1.950242E+018
1.906476E+018
2.120946E+018
1.907155E+018
2.010984E+018
2.224506E+018
2.180395E+018
2.296657E+018
2.336554E+018
2.235797E+018
2.37341E+018
2.277325E+018
2.434644E+018
2.428687E+018
2.482986E+018
2.577111E+018
2.493988E+018
2.439826E+018
2.413519E+018
2.396792E+018
2.437702E+018
2.545775E+018
2.325243E+018
2.570142E+018
2.423541E+018
2.478436E+018
2.564866E+018
2.461512E+018
2.385455E+018
2.229465E+018
2.212883E+018
2.225563E+018
1.939087E+018
2.128704E+018
1.872803E+018
2.124389E+018
1.946069E+018
1.865413E+018
1.705117E+018
1.623498E+018
1.628439E+018
1.641632E+018
1.718274E+018
1.492992E+018
1.474916E+018
1.323863E+018
1.208053E+018
1.269059E+018
1.119051E+018
9.729421E+017
8.426196E+017
7.887132E+017
7.187022E+017
6.86921E+017
4.83847E+017
4.120531E+017
3.399279E+017
2.316702E+017
1.364869E+017
1.33596E+017
2.360473E+017
3.785899E+017
4.769818E+017
5.984376E+017
6.79392E+017
9.081648E+017
9.858545E+017
1.111056E+018
1.26417E+018
1.306084E+018
1.410203E+018
1.582206E+018
1.629952E+018
1.710927E+018
1.783253E+018
1.67464E+018
1.810994E+018
2.042518E+018
2.068578E+018
2.056293E+018
2.221735E+018
2.152991E+018
2.268259E+018
2.31951E+018
2.447872E+018
2.333733E+018
2.68053E+018
2.605836E+018
2.556914E+018
2.706189E+018
2.808207E+018
2.641112E+018
2.741151E+018
2.800659E+018
2.678687E+018
3.018232E+018
3.07514E+018
2.846558E+018
2.760223E+018
3.06674E+018
2.848737E+018
2.810251E+018
2.816127E+018
2.857435E+018
2.946788E+018
2.719546E+018
2.678409E+018
2.937197E+018
2.738684E+018
2.551133E+018
2.47924E+018
2.417805E+018
2.525973E+018
2.292667E+018
2.336237E+018
2.178958E+018
2.187525E+018
2.120094E+018
2.08715E+018
2.05231E+018
1.848115E+018
1.914346E+018
1.651163E+018
1.690569E+018
1.625393E+018
1.569669E+018
1.554162E+018
1.281696E+018
1.172162E+018
1.110873E+018
9.357832E+017
8.371621E+017
8.828294E+017
7.306851E+017
5.580762E+017
4.100063E+017
4.115533E+017
2.676724E+017
1.628214E+017
1.890653E+017
2.657575E+017
4.605529E+017
5.457187E+017
6.631267E+017
9.172519E+017
9.267896E+017
1.110593E+018
1.15168E+018
1.324248E+018
1.425562E+018
1.606892E+018
1.584122E+018
1.788618E+018
1.860897E+018
1.805826E+018
1.871185E+018
2.026683E+018
2.273965E+018
2.395752E+018
2.312552E+018
2.523573E+018
2.404546E+018
2.431715E+018
2.390855E+018
2.855355E+018
2.509309E+018
2.74089E+018
2.755916E+018
2.85929E+018
2.829886E+018
3.300096E+018
3.139223E+018
3.149076E+018
3.058696E+018
3.171871E+018
3.107002E+018
3.275726E+018
3.275824E+018
3.272124E+018
3.273817E+018
3.210635E+018
3.079881E+018
3.221102E+018
3.193372E+018
3.155243E+018
3.158273E+018
3.072906E+018
3.113244E+018
3.112404E+018
2.92738E+018
2.921939E+018
2.932504E+018
2.892018E+018
2.644492E+018
2.662228E+018
2.697163E+018
2.437214E+018
2.34029E+018
2.388829E+018
2.293916E+018
2.303604E+018
2.088104E+018
1.988631E+018
1.824858E+018
1.732723E+018
1.69023E+018
1.64514E+018
1.341447E+018
1.506711E+018
1.360055E+018
1.143389E+018
9.993631E+017
8.924239E+017
8.137789E+017
7.057239E+017
5.077093E+017
3.521205E+017
3.075508E+017
1.707376E+017
2.035978E+017
3.251376E+017
5.33985E+017
5.80354E+017
7.468122E+017
8.915108E+017
9.887794E+017
1.112424E+018
1.466149E+018
1.491017E+018
1.610959E+018
1.62066E+018
1.780493E+018
1.992234E+018
2.082109E+018
1.992197E+018
2.123693E+018
2.248817E+018
2.492242E+018
2.49707E+018
2.426059E+018
2.561736E+018
2.638471E+018
2.592865E+018
2.831603E+018
3.126421E+018
2.971545E+018
3.018519E+018
3.100045E+018
3.337065E+018
3.209451E+018
3.411216E+018
3.423148E+018
3.446064E+018
3.356967E+018
3.224046E+018
3.402907E+018
3.549728E+018
3.294451E+018
3.567124E+018
3.627489E+018
3.581305E+018
3.327975E+018
3.510427E+018
3.641195E+018
3.457806E+018
3.373503E+018
3.489449E+018
3.278632E+018
3.227772E+018
3.356757E+018
3.392022E+018
3.127589E+018
3.053844E+018
3.01152E+018
2.80725E+018
2.799863E+018
2.880755E+018
2.646978E+018
2.689501E+018
2.496424E+018
2.341781E+018
2.223669E+018
2.189354E+018
2.102796E+018
1.99877E+018
1.815254E+018
1.725201E+018
1.685921E+018
1.52778E+018
1.530558E+018
1.310394E+018
1.149787E+018
1.028067E+018
8.482957E+017
7.624745E+017
6.134979E+017
4.403567E+017
3.184041E+017
2.076874E+017
2.43296E+017
3.834843E+017
4.875816E+017
5.994868E+017
8.133124E+017
9.482484E+017
1.073541E+018
1.436995E+018
1.622509E+018
1.580697E+018
1.70779E+018
1.73137E+018
2.135919E+018
2.137105E+018
2.353094E+018
2.267685E+018
2.432243E+018
2.681733E+018
2.660084E+018
2.718679E+018
2.737682E+018
2.858143E+018
3.160118E+018
3.117361E+018
3.118796E+018
3.168663E+018
3.391946E+018
3.507105E+018
3.560392E+018
3.780687E+018
3.809562E+018
3.782148E+018
3.641572E+018
3.752024E+018
3.654241E+018
3.623267E+018
3.605236E+018
3.759201E+018
3.82741E+018
3.785172E+018
3.877916E+018
3.891712E+018
3.765516E+018
3.900167E+018
3.695577E+018
3.542554E+018
3.913827E+018
3.834493E+018
3.556905E+018
3.546778E+018
3.661687E+018
3.445311E+018
3.229253E+018
3.402003E+018
3.469395E+018
3.327859E+018
3.08161E+018
2.841915E+018
2.876175E+018
2.903528E+018
2.629387E+018
2.516561E+018
2.550421E+018
2.487858E+018
2.355794E+018
2.273588E+018
2.244369E+018
2.233106E+018
1.79805E+018
1.786117E+018
1.547019E+018
1.551946E+018
1.336712E+018
1.086909E+018
8.949256E+017
8.100962E+017
6.284412E+017
5.221447E+017
4.32841E+017
2.294656E+017
2.566287E+017
4.40169E+017
5.811895E+017
7.006558E+017
9.987943E+017
1.18692E+018
1.160533E+018
1.382075E+018
1.598117E+018
1.654191E+018
1.962454E+018
2.190981E+018
2.085994E+018
2.340513E+018
2.453754E+018
2.502535E+018
2.419688E+018
2.72911E+018
2.748635E+018
2.986117E+018
2.997858E+018
3.088469E+018
3.334395E+018
3.612702E+018
3.486876E+018
3.60726E+018
3.747555E+018
3.629454E+018
3.740736E+018
3.970858E+018
4.117003E+018
4.018391E+018
3.99082E+018
4.048022E+018
4.085351E+018
4.223972E+018
4.067005E+018
4.146982E+018
3.926113E+018
4.07242E+018
4.296942E+018
4.164677E+018
4.162512E+018
4.021906E+018
4.096362E+018
3.971472E+018
3.900217E+018
4.002488E+018
3.852931E+018
3.993192E+018
3.860254E+018
3.816048E+018
3.546817E+018
3.611414E+018
3.694584E+018
3.588748E+018
3.446836E+018
3.128196E+018
3.175099E+018
3.327233E+018
3.052309E+018
2.99487E+018
2.668953E+018
2.807633E+018
2.577412E+018
2.402838E+018
2.312778E+018
2.233111E+018
1.886627E+018
1.879653E+018
1.743056E+018
1.614405E+018
1.345695E+018
1.15348E+018
1.148177E+018
8.624856E+017
6.82482E+017
5.65999E+017
4.342293E+017
2.735576E+017
2.383864E+017
5.020786E+017
6.07075E+017
9.103734E+017
1.053966E+018
1.228413E+018
1.460317E+018
1.441275E+018
1.611083E+018
1.795077E+018
2.009146E+018
2.202065E+018
2.366957E+018
2.466547E+018
2.744486E+018
2.70765E+018
2.677525E+018
2.815832E+018
2.867739E+018
2.85886E+018
3.266039E+018
3.501252E+018
3.484413E+018
3.61191E+018
3.735934E+018
3.680793E+018
3.998864E+018
3.880403E+018
4.112387E+018
4.122332E+018
4.246032E+018
4.206648E+018
4.231451E+018
4.335521E+018
4.358282E+018
4.351912E+018
4.565207E+018
4.53768E+018
4.429159E+018
4.406817E+018
4.64696E+018
4.383334E+018
4.470959E+018
4.425622E+018
4.326384E+018
4.337682E+018
4.370573E+018
4.392093E+018
4.182473E+018
4.494902E+018
4.47463E+018
3.965868E+018
3.793016E+018
3.794491E+018
3.867918E+018
3.781546E+018
3.673884E+018
3.661491E+018
3.403794E+018
3.418714E+018
3.226203E+018
3.095706E+018
2.911706E+018
2.668881E+018
2.810355E+018
2.525129E+018
2.339063E+018
2.255251E+018
2.168014E+018
1.758666E+018
1.794146E+018
1.566846E+018
1.38605E+018
1.239223E+018
1.06259E+018
1.002935E+018
7.185234E+017
6.856126E+017
4.68358E+017
2.237225E+017
2.76993E+017
5.116283E+017
7.220884E+017
8.775841E+017
1.109103E+018
1.355076E+018
1.430865E+018
1.480994E+018
1.850094E+018
2.104172E+018
2.178454E+018
2.245824E+018
2.457474E+018
2.973154E+018
2.724225E+018
3.02315E+018
3.249136E+018
3.024955E+018
3.072618E+018
3.214272E+018
3.430423E+018
3.69267E+018
3.895666E+018
3.729752E+018
3.879104E+018
4.060267E+018
4.035753E+018
4.431451E+018
4.480814E+018
4.57359E+018
4.50972E+018
4.773381E+018
4.621676E+018
4.645174E+018
4.899019E+018
4.696383E+018
4.670242E+018
4.721423E+018
4.82088E+018
4.924376E+018
4.847229E+018
4.88212E+018
4.801985E+018
4.859773E+018
4.725352E+018
4.4666E+018
4.581248E+018
4.39369E+018
4.568399E+018
4.380962E+018
4.591721E+018
4.177902E+018
4.130862E+018
4.190379E+018
4.14691E+018
4.109041E+018
4.0664E+018
3.764373E+018
3.457852E+018
3.555982E+018
3.379852E+018
3.260803E+018
3.242571E+018
2.998121E+018
2.803507E+018
2.678477E+018
2.498935E+018
2.283871E+018
2.165075E+018
2.113146E+018
1.852872E+018
1.61406E+018
1.521937E+018
1.335032E+018
1.21828E+018
1.072673E+018
8.012354E+017
5.710492E+017
4.487313E+017
2.909047E+017
2.94754E+017
5.212977E+017
7.507812E+017
8.838183E+017
1.125458E+018
1.365755E+018
1.621536E+018
1.718645E+018
1.929548E+018
1.919507E+018
2.340713E+018
2.338444E+018
2.735397E+018
2.888733E+018
2.932051E+018
3.295212E+018
3.39446E+018
3.521843E+018
3.48943E+018
3.611038E+018
3.871831E+018
3.75948E+018
4.080621E+018
4.125095E+018
4.344282E+018
4.372842E+018
4.63274E+018
4.791318E+018
4.642052E+018
4.954726E+018
4.979399E+018
4.883841E+018
4.725762E+018
5.210663E+018
5.081645E+018
5.307057E+018
4.964371E+018
5.020607E+018
4.974832E+018
5.187526E+018
5.0561E+018
4.913195E+018
5.133087E+018
5.300694E+018
5.072861E+018
4.920947E+018
4.971494E+018
4.899611E+018
4.767113E+018
4.972123E+018
4.864317E+018
4.329561E+018
4.800969E+018
4.402734E+018
4.509136E+018
4.38379E+018
4.295473E+018
4.004608E+018
3.973637E+018
3.801503E+018
3.842859E+018
3.507542E+018
3.435558E+018
3.317766E+018
3.064618E+018
2.693742E+018
2.583714E+018
2.531457E+018
2.538283E+018
2.227919E+018
1.893605E+018
1.72517E+018
1.446276E+018
1.423481E+018
1.231671E+018
1.125135E+018
9.08828E+017
8.07049E+017
4.936433E+017
3.296391E+017
3.720041E+017
5.408728E+017
7.955208E+017
9.797582E+017
1.14727E+018
1.448988E+018
1.634105E+018
1.738438E+018
2.097123E+018
2.185174E+018
2.331559E+018
2.61482E+018
2.715398E+018
2.978666E+018
3.114422E+018
3.461443E+018
3.757983E+018
3.556885E+018
3.675243E+018
3.655823E+018
4.047044E+018
4.018265E+018
4.275742E+018
4.47817E+018
4.658585E+018
4.55013E+018
4.817795E+018
5.141522E+018
5.062002E+018
4.929875E+018
5.112911E+018
5.293434E+018
5.298902E+018
5.349667E+018
5.239364E+018
5.227411E+018
5.462524E+018
5.226569E+018
5.394721E+018
5.360691E+018
5.16245E+018
5.272451E+018
5.170632E+018
5.256912E+018
5.343966E+018
5.213125E+018
5.146001E+018
5.134985E+018
5.464831E+018
5.328296E+018
4.897142E+018
5.105339E+018
5.084881E+018
4.777972E+018
4.634186E+018
4.379131E+018
4.332093E+018
4.188326E+018
4.27675E+018
4.146526E+018
3.912566E+018
3.92167E+018
3.546996E+018
3.316323E+018
3.191146E+018
2.916187E+018
2.823789E+018
2.631863E+018
2.565302E+018
2.217902E+018
2.103057E+018
2.018108E+018
1.833422E+018
1.586008E+018
1.354149E+018
1.180562E+018
1.123014E+018
7.274405E+017
5.678501E+017
3.469875E+017
3.560833E+017
5.406997E+017
8.277058E+017
1.135069E+018
1.199518E+018
1.420417E+018
1.59717E+018
1.900502E+018
2.233449E+018
2.231114E+018
2.515068E+018
2.818853E+018
2.925033E+018
3.141342E+018
3.255576E+018
3.362012E+018
3.442195E+018
3.741097E+018
3.812427E+018
4.360737E+018
4.190586E+018
4.513798E+018
4.487562E+018
4.531415E+018
4.787564E+018
4.788783E+018
5.24986E+018
5.106446E+018
5.001411E+018
5.239908E+018
5.560545E+018
5.335662E+018
5.627605E+018
5.721906E+018
5.39635E+018
5.434648E+018
5.524027E+018
5.631451E+018
5.548131E+018
5.808816E+018
5.824236E+018
5.698744E+018
5.708033E+018
5.770317E+018
5.970504E+018
5.606466E+018
5.573435E+018
5.484732E+018
5.705807E+018
5.36945E+018
5.254066E+018
5.369136E+018
5.172672E+018
5.166608E+018
4.830615E+018
4.931479E+018
4.587191E+018
4.51967E+018
4.511411E+018
4.728352E+018
4.161807E+018
3.914372E+018
3.568546E+018
3.637773E+018
3.324046E+018
3.516182E+018
2.942386E+018
2.820178E+018
2.614085E+018
2.414991E+018
2.380815E+018
2.008908E+018
1.806237E+018
1.471801E+018
1.279459E+018
1.222322E+018
1.11013E+018
7.455851E+017
5.201449E+017
3.179768E+017
4.285352E+017
5.565896E+017
8.224475E+017
1.133834E+018
1.467512E+018
1.611898E+018
1.832571E+018
2.084632E+018
2.265829E+018
2.306957E+018
2.765725E+018
2.924017E+018
3.089109E+018
3.183469E+018
3.271165E+018
3.533347E+018
3.769909E+018
3.866878E+018
4.091305E+018
4.324554E+018
4.425698E+018
4.585926E+018
4.916302E+018
4.847081E+018
5.036256E+018
5.311809E+018
5.494668E+018
5.600374E+018
5.457485E+018
5.550325E+018
5.708136E+018
5.533353E+018
5.80646E+018
5.911994E+018
6.119918E+018
5.826128E+018
5.863436E+018
6.119481E+018
5.991049E+018
5.98353E+018
5.997976E+018
6.143231E+018
5.905816E+018
6.077858E+018
6.312035E+018
6.229158E+018
5.992501E+018
6.010974E+018
5.806643E+018
5.964532E+018
5.435612E+018
5.606589E+018
5.526702E+018
5.136022E+018
5.172881E+018
5.168004E+018
5.10802E+018
4.688364E+018
4.523969E+018
4.406704E+018
4.389386E+018
4.073405E+018
4.084492E+018
3.950374E+018
3.67283E+018
3.410909E+018
3.086631E+018
2.919506E+018
2.872136E+018
2.43179E+018
2.453539E+018
2.296585E+018
1.954557E+018
1.750063E+018
1.460976E+018
1.292487E+018
1.193504E+018
8.463014E+017
6.045603E+017
4.117139E+017
4.15667E+017
6.13256E+017
9.276968E+017
1.135285E+018
1.34165E+018
1.621853E+018
1.772343E+018
2.208517E+018
2.255233E+018
2.519129E+018
2.895755E+018
3.133508E+018
3.061556E+018
3.232395E+018
3.36279E+018
3.893023E+018
3.99632E+018
3.95246E+018
4.228697E+018
4.242727E+018
4.694459E+018
5.05662E+018
5.16759E+018
4.976662E+018
5.276229E+018
5.529442E+018
5.412015E+018
5.504024E+018
5.805668E+018
5.842169E+018
6.088216E+018
6.095888E+018
6.02508E+018
6.055891E+018
6.312818E+018
6.565539E+018
6.389965E+018
6.355613E+018
6.36404E+018
6.280173E+018
6.415176E+018
6.206812E+018
6.383927E+018
6.467145E+018
6.35332E+018
6.330542E+018
6.25364E+018
6.072417E+018
6.051746E+018
5.83878E+018
5.970812E+018
5.520939E+018
5.638197E+018
5.507915E+018
5.695325E+018
5.556519E+018
5.358811E+018
4.872602E+018
4.662171E+018
4.594609E+018
4.641616E+018
4.376059E+018
4.218813E+018
3.965387E+018
3.598284E+018
3.484437E+018
3.262236E+018
3.238052E+018
2.993707E+018
2.619817E+018
2.552875E+018
2.246413E+018
2.141982E+018
1.994341E+018
1.480712E+018
1.335525E+018
1.129958E+018
8.75977E+017
6.905831E+017
4.817156E+017
4.121188E+017
6.592485E+017
1.055367E+018
1.283015E+018
1.537026E+018
1.762711E+018
1.967814E+018
2.44633E+018
2.6055E+018
2.675779E+018
3.079123E+018
3.137964E+018
3.365814E+018
3.344949E+018
3.64418E+018
3.928519E+018
4.027076E+018
4.237591E+018
4.526799E+018
4.385929E+018
4.817916E+018
5.036777E+018
4.906575E+018
5.275233E+018
5.598829E+018
5.717499E+018
5.60175E+018
6.058676E+018
5.836424E+018
6.30217E+018
6.08874E+018
6.078542E+018
6.14781E+018
6.129203E+018
6.227032E+018
6.315707E+018
6.475227E+018
6.614688E+018
6.595884E+018
6.411138E+018
6.588298E+018
6.813479E+018
6.370607E+018
6.615791E+018
6.717106E+018
6.482481E+018
6.352314E+018
6.521501E+018
6.259535E+018
6.02507E+018
6.194247E+018
5.867699E+018
6.083829E+018
6.025617E+018
5.693453E+018
5.544979E+018
5.323098E+018
5.042599E+018
4.90308E+018
4.687012E+018
4.829526E+018
4.519122E+018
4.309485E+018
4.103113E+018
3.945078E+018
3.876394E+018
3.630967E+018
3.325826E+018
3.151963E+018
2.631335E+018
2.575112E+018
2.44739E+018
2.221259E+018
1.935875E+018
1.634279E+018
1.505802E+018
1.227083E+018
1.006754E+018
7.645189E+017
4.24163E+017
4.073242E+017
6.94083E+017
9.797509E+017
1.286819E+018
1.662647E+018
1.669183E+018
2.107188E+018
2.34253E+018
2.653005E+018
2.835008E+018
3.183256E+018
3.212962E+018
3.697533E+018
3.580516E+018
3.929191E+018
3.965726E+018
3.975135E+018
4.262337E+018
4.494507E+018
4.79656E+018
4.906681E+018
5.408057E+018
5.438856E+018
5.568143E+018
5.556994E+018
5.744606E+018
5.972087E+018
6.265894E+018
6.631899E+018
6.461743E+018
6.211029E+018
6.30527E+018
6.495859E+018
6.569142E+018
6.43768E+018
6.598342E+018
6.656491E+018
6.768338E+018
7.060721E+018
6.928452E+018
7.016934E+018
7.221191E+018
6.705965E+018
6.675271E+018
6.755253E+018
6.580805E+018
6.763305E+018
6.439554E+018
6.444285E+018
6.373565E+018
6.433131E+018
6.205297E+018
6.160215E+018
6.101702E+018
5.609214E+018
5.656712E+018
5.680563E+018
5.178068E+018
5.173278E+018
4.87976E+018
4.964012E+018
4.857342E+018
4.584563E+018
4.424554E+018
4.267882E+018
3.700379E+018
3.756781E+018
3.54161E+018
3.08039E+018
2.8283E+018
2.770202E+018
2.421456E+018
2.292915E+018
1.99247E+018
1.594731E+018
1.366236E+018
1.147702E+018
9.698284E+017
6.763196E+017
4.705473E+017
4.978697E+017
7.868997E+017
1.04304E+018
1.403363E+018
1.632617E+018
1.893436E+018
2.369742E+018
2.375208E+018
2.811175E+018
2.941361E+018
3.088815E+018
3.370203E+018
3.432906E+018
3.745184E+018
3.79829E+018
4.349414E+018
4.484886E+018
4.495427E+018
4.663092E+018
5.074424E+018
5.107546E+018
5.423183E+018
5.622318E+018
5.611961E+018
5.807291E+018
6.060157E+018
6.139437E+018
6.22794E+018
6.637055E+018
6.763336E+018
6.538767E+018
6.504958E+018
6.780154E+018
6.82545E+018
6.831528E+018
7.009044E+018
7.043117E+018
7.051257E+018
7.18258E+018
7.053024E+018
7.195214E+018
7.108544E+018
7.326574E+018
7.19689E+018
6.868279E+018
6.86895E+018
6.937163E+018
6.806998E+018
6.818532E+018
6.790554E+018
6.811548E+018
6.315379E+018
6.201727E+018
6.239883E+018
6.175264E+018
6.063343E+018
5.586746E+018
5.303621E+018
5.351878E+018
5.289797E+018
5.02436E+018
4.979023E+018
4.666242E+018
4.590681E+018
4.346682E+018
4.12963E+018
3.725041E+018
3.691619E+018
3.398858E+018
3.101314E+018
2.791849E+018
2.634898E+018
2.18689E+018
2.010376E+018
1.772343E+018
1.385745E+018
1.225799E+018
1.136291E+018
8.139398E+017
4.152088E+017
4.061394E+017
6.680654E+017
1.118201E+018
1.353144E+018
1.674566E+018
2.199619E+018
2.161987E+018
2.551597E+018
2.699225E+018
2.934989E+018
3.239592E+018
3.62265E+018
3.656387E+018
3.864131E+018
4.247081E+018
4.552439E+018
4.664367E+018
4.854526E+018
4.780209E+018
5.281892E+018
5.311066E+018
5.225554E+018
5.877227E+018
6.258811E+018
5.752123E+018
6.420024E+018
6.50505E+018
6.510918E+018
6.457391E+018
6.886243E+018
6.796712E+018
7.151016E+018
7.241558E+018
7.06E+018
7.070895E+018
6.920426E+018
7.319619E+018
7.102045E+018
7.17285E+018
7.070022E+018
7.208021E+018
7.168503E+018
7.333034E+018
7.342085E+018
6.868189E+018
7.186533E+018
7.073614E+018
6.820013E+018
6.990011E+018
6.851474E+018
6.882178E+018
6.316613E+018
6.706212E+018
6.032909E+018
6.170394E+018
5.897179E+018
5.944131E+018
5.862074E+018
5.402691E+018
5.45706E+018
5.604214E+018
4.971642E+018
4.764681E+018
4.658157E+018
4.295189E+018
4.357414E+018
4.05232E+018
3.570179E+018
3.285853E+018
3.161071E+018
2.798401E+018
2.658936E+018
2.129164E+018
2.141338E+018
1.974286E+018
1.661594E+018
1.511048E+018
1.098109E+018
8.013818E+017
4.350725E+017
4.288349E+017
7.95609E+017
1.011572E+018
1.47658E+018
1.579876E+018
1.993109E+018
2.261647E+018
2.466288E+018
3.02458E+018
3.049936E+018
3.459998E+018
3.72027E+018
3.890227E+018
4.130745E+018
4.408502E+018
4.772008E+018
4.66874E+018
4.773801E+018
5.156983E+018
5.494033E+018
5.557172E+018
5.718469E+018
5.912687E+018
6.120633E+018
6.27148E+018
6.419558E+018
6.304687E+018
6.54918E+018
6.792144E+018
6.925333E+018
7.165279E+018
7.388721E+018
7.252061E+018
7.314058E+018
7.207179E+018
7.097899E+018
7.317241E+018
7.213681E+018
7.501023E+018
7.345301E+018
7.45419E+018
7.536766E+018
7.455964E+018
7.676904E+018
7.418209E+018
7.509183E+018
7.503879E+018
7.337571E+018
7.128519E+018
7.076989E+018
7.111368E+018
6.735403E+018
6.771617E+018
6.412906E+018
6.385015E+018
6.032493E+018
6.033857E+018
5.73879E+018
5.693297E+018
5.606986E+018
5.490935E+018
5.245642E+018
4.895149E+018
4.707813E+018
4.24201E+018
4.258303E+018
4.131702E+018
3.861029E+018
3.495874E+018
3.155449E+018
3.007994E+018
2.762696E+018
2.388884E+018
2.092119E+018
1.854222E+018
1.551391E+018
1.421465E+018
1.16703E+018
8.126519E+017
4.105491E+017
4.264833E+017
7.693962E+017
1.096564E+018
1.443878E+018
1.742456E+018
1.833018E+018
2.31474E+018
2.5854E+018
2.994082E+018
3.188022E+018
3.580907E+018
3.752272E+018
3.986692E+018
4.363711E+018
4.489821E+018
4.791805E+018
5.07141E+018
5.015825E+018
5.18404E+018
5.675511E+018
5.633474E+018
5.944093E+018
5.881255E+018
5.985284E+018
6.371692E+018
6.68747E+018
6.557648E+018
7.079005E+018
7.446923E+018
7.178706E+018
7.385104E+018
7.189869E+018
7.158247E+018
7.388373E+018
7.414245E+018
7.29451E+018
7.749192E+018
7.691012E+018
7.530156E+018
7.553958E+018
7.46333E+018
7.637196E+018
7.70545E+018
7.479527E+018
7.810234E+018
7.636384E+018
7.540945E+018
7.76484E+018
7.774926E+018
7.524256E+018
6.871223E+018
6.898685E+018
7.246783E+018
7.005325E+018
6.909604E+018
6.079513E+018
6.283631E+018
6.114087E+018
5.837519E+018
5.685986E+018
5.618644E+018
5.383772E+018
5.142672E+018
4.790478E+018
4.646269E+018
4.394919E+018
4.267878E+018
3.824358E+018
3.44141E+018
3.261527E+018
3.135944E+018
2.596255E+018
2.448365E+018
2.370473E+018
1.951851E+018
1.659414E+018
1.450654E+018
1.190184E+018
7.321357E+017
4.70304E+017
4.606829E+017
8.46916E+017
1.285152E+018
1.502736E+018
1.673626E+018
2.012047E+018
2.384241E+018
2.831182E+018
2.951206E+018
3.39644E+018
3.625579E+018
3.852825E+018
4.146471E+018
4.369842E+018
4.458691E+018
4.582267E+018
4.779847E+018
5.099079E+018
5.275501E+018
5.721795E+018
5.853605E+018
6.553713E+018
6.286003E+018
6.306313E+018
6.504182E+018
6.85917E+018
7.049979E+018
7.113002E+018
7.289373E+018
7.519698E+018
7.424335E+018
7.211592E+018
7.260497E+018
7.485925E+018
7.541111E+018
7.712378E+018
7.873144E+018
7.919253E+018
7.724536E+018
7.698339E+018
7.863559E+018
7.796225E+018
7.96886E+018
7.892068E+018
7.555207E+018
8.187777E+018
7.772031E+018
7.857868E+018
7.638418E+018
7.582933E+018
7.197879E+018
7.43672E+018
7.231496E+018
7.011328E+018
6.648316E+018
7.019895E+018
6.581657E+018
6.186248E+018
6.129631E+018
5.839854E+018
5.654927E+018
5.488772E+018
5.351382E+018
5.002336E+018
4.666059E+018
4.591542E+018
4.446892E+018
3.882631E+018
3.828813E+018
3.215002E+018
3.193819E+018
2.826364E+018
2.609938E+018
2.494165E+018
2.098761E+018
1.681811E+018
1.500656E+018
1.052212E+018
7.713967E+017
4.66934E+017
5.27065E+017
8.868432E+017
1.212294E+018
1.618192E+018
1.830869E+018
2.260255E+018
2.4136E+018
2.942567E+018
3.084861E+018
3.421902E+018
3.606719E+018
3.852791E+018
4.039151E+018
4.352492E+018
4.699232E+018
4.871076E+018
4.995084E+018
5.312647E+018
5.356567E+018
5.898688E+018
6.177728E+018
6.360308E+018
6.733206E+018
6.481266E+018
6.819709E+018
7.094583E+018
7.40945E+018
7.18038E+018
7.574051E+018
7.779183E+018
7.458978E+018
7.618868E+018
7.383909E+018
7.73895E+018
7.963394E+018
8.085366E+018
7.996731E+018
7.831716E+018
8.063115E+018
8.168963E+018
8.185762E+018
8.06465E+018
8.457344E+018
8.238057E+018
8.158091E+018
8.174548E+018
8.165404E+018
8.008959E+018
7.5066E+018
7.849357E+018
7.494957E+018
7.312222E+018
7.285319E+018
7.084323E+018
6.996978E+018
6.890357E+018
6.938262E+018
6.498006E+018
6.214441E+018
5.830947E+018
5.895417E+018
5.704515E+018
5.577734E+018
5.076721E+018
4.840589E+018
4.697809E+018
4.36241E+018
4.071624E+018
3.925047E+018
3.592617E+018
3.317198E+018
3.204874E+018
2.80927E+018
2.179425E+018
2.246792E+018
1.859276E+018
1.485186E+018
1.171182E+018
8.597721E+017
5.364042E+017
5.152125E+017
9.348744E+017
1.148381E+018
1.541302E+018
1.950206E+018
2.166636E+018
2.467788E+018
2.848533E+018
3.12297E+018
3.550455E+018
3.732914E+018
3.913687E+018
4.102509E+018
4.287269E+018
4.564882E+018
5.162486E+018
5.187322E+018
5.356648E+018
5.628472E+018
5.705117E+018
6.043919E+018