/*--------------------------------*- C++ -*----------------------------------*\
| =========                 |                                                 |
| \\      /  F ield         | OpenFOAM: The Open Source CFD Toolbox           |
|  \\    /   O peration     | Version:  v1806                                 |
|   \\  /    A nd           | Web:      www.OpenFOAM.com                      |
|    \\/     M anipulation  |                                                 |
\*---------------------------------------------------------------------------*/
FoamFile
{
    version     2.0;
    format      ascii;
    class       volScalarField;
    object      dnp2_s;
}
// * * * * * * * * * * * * * * * * * * * * * * * * * * * * * * * * * * * * * //

dimensions      [0 -3 -1 0 0 0 0];

internalField   nonuniform List<scalar> 
6400
(
157429221860978
255608566942621
345805006093250
437712793895626
555755197540513
647489426914068
714496270949061
820939186267785
901479678777148
1.00217483928196E+015
1.05762753908481E+015
1.19394908518127E+015
1.23407860838556E+015
1.29983536265621E+015
1.41392266679027E+015
1.47481665787506E+015
1.60221792616593E+015
1.60914462742426E+015
1.73168313252926E+015
1.75555914341294E+015
1.88509471130147E+015
1.91532671329464E+015
1916491587434025
1.97256190506916E+015
2.06964517394717E+015
2065235851701463
2151084730389613
2.16714279402912E+015
2.23622999382579E+015
2.28453708984747E+015
2.44898761012843E+015
2337636587529821
2.39030609811374E+015
2.42676118611327E+015
2.47715567404915E+015
2.39986744759336E+015
2.51901296359439E+015
2453052942695394
2468102491140407
2420592825737631
2.55717236409315E+015
2445790069705567
2.52894957454172E+015
2.42027228990062E+015
2.41004641490526E+015
2392925110440539
2.43222593123694E+015
2411094019835973
2.3065993369705E+015
2377140674954575
2.2678145006922E+015
2.35184179767246E+015
2.2062090764082E+015
2171372303488215
2.10675696951521E+015
2.06996570978418E+015
2.00277827116785E+015
1.97797192456212E+015
1874423213313186
1820104115860744
1743605502076613
1685666695050124
1614875182754231
1.54058123009295E+015
1.48931895001298E+015
1.37707668142854E+015
1355757139293705
1.20472221648373E+015
1.20185302984512E+015
1.08362221367165E+015
1.00320680831819E+015
913316050904810
798697126358142
731730153854093
628644265082014
588499887777963
454357203578448
358366883725170
277576216903994
158443209618546
238925067523578
374242789193891
551535851412838
722115642333222
848380181094795
1.00799920997886E+015
1109663795941954
1.26851666599609E+015
1461659052663132
1512366258488771
1.65035302734824E+015
1793327646549487
1.98424973619918E+015
2011346741347450
2.17731394339378E+015
2358979583506385
2.44356195474098E+015
2574324940346844
2623632733615778
2754380083327154
2815602428196191
2982312335230715
2.98465771940396E+015
3.06176613307314E+015
3220095200661921
3.25598739645987E+015
3351530529730783
3367275875480527
3.56658662252321E+015
3520171469734615
3613330129096057
3.56321708726097E+015
3.79838875831263E+015
3655461046794849
3.73551682657507E+015
3.74367876349798E+015
3.80437730590166E+015
3798271489103967
3.88176716567162E+015
3.84539807509178E+015
3898685203507993
3912968593123078
3.87535644893141E+015
3.79746624053782E+015
3.72632292061594E+015
3.70272835583306E+015
3770439596914749
3.63752667581674E+015
3.65585194415706E+015
3.61412755971496E+015
3.57730502819496E+015
3533813787675679
3484873437927221
3363773435115142
3.25744935259453E+015
3.16465031880632E+015
3.08634575920879E+015
2.99274147685443E+015
2.95961683438091E+015
2.80614271203075E+015
2.69080453633762E+015
2587576360925700
2.47255872106958E+015
2.32405681316671E+015
2299070653774367
2193981806918333
2.03963207447683E+015
1.90569500228984E+015
1.76701243612564E+015
1.71378003334013E+015
1.5475470210875E+015
1.38899123302864E+015
1.21963885982559E+015
1103753427825367
994091081831498
830547443430860
693877216887307
534781990468598
446334426116488
231820898862808
325249277404173
527308814697903
710837471638793
963647995262729
1.08839116149059E+015
1.28713119838445E+015
1.46841375908209E+015
1.67021061334841E+015
1891356887044042
1.99040246068034E+015
2.15213233532033E+015
2.3317027655715E+015
2575012919704331
2.66441896438857E+015
2947459926416238
3116265043312197
3.21392684028628E+015
3.35068619142841E+015
3.51358875815503E+015
3695066767533777
3731154412012832
3977153939997653
3944271653888704
4.07255635021817E+015
4.25917856888357E+015
4340047415177193
4.4683399294539E+015
4691495415591279
4677360566973834
4666173084467437
4754719154954822
4903260152593912
4921202341519265
4955726396549488
5003173518374311
5071392926026873
5110537387878396
5136625877832167
4985684770389119
5052801847480255
5022210219913847
5102766348317699
5099068459271209
5107863649920893
4989390477382852
4912977861018406
4927808506940583
4850449918959594
4771903002997493
4779892945081026
4758675036260369
4647988539177514
4601119945448759
4.46330517142866E+015
4.32559984866998E+015
4229962900032140
4035843269959582
4042019448282470
3.94086302889025E+015
3767797130746222
3536636066630822
3.49734306378166E+015
3342274080193695
3.09036418409229E+015
3001786841815924
2.90850309529858E+015
2700545698603850
2538886185489055
2.328356684151E+015
2259832376555915
2089080590796159
1.91939204586161E+015
1.63253592557879E+015
1.56644299957664E+015
1.30973288386732E+015
1.11075049060889E+015
964101436202890
722909945773229
554095447340577
328123154811127
394700011747692
638515205272494
931969673029382
1.18808562474815E+015
1.41669022011471E+015
1.63318481520006E+015
1.86385334863908E+015
2071849835070025
2390775174948395
2.57023615393815E+015
2725828939991472
2976401967114128
3115272164012188
3.44894215239305E+015
3610359309143275
3.82224913330181E+015
4.00774556756406E+015
4164362504706371
4.43727922505284E+015
4530086076788299
4805496722305659
4923047377068888
4971526467929940
5182313961527054
5305946979246241
5514772168085069
5426828079535483
5615733138796184
5773585311603072
5788501954944934
6026730443369057
6055821025064587
6040912199669969
6213047762091941
6202313720525706
6270830210173547
6343607481069457
6363887236220815
6284386530694925
6280719913437412
6334867016050483
6388646675143078
6343044588867877
6188694856426374
6205221996900534
6089102026482987
6027308971465126
6075811516167910
6001838099343643
5923635173060285
5859457644132954
5785101147893724
5678018724490428
5523426635684357
5402537717447870
5273080329031781
5157437253396127
4979758766378043
4814674992370307
4708999799470959
4.47435193088466E+015
4.30942451582181E+015
4.0926015669522E+015
3918980594553839
3807027590017430
3.56253692585073E+015
3.37266244113175E+015
3.24386957823142E+015
2.96591028191246E+015
2780656204014784
2588311247966651
2.36327945449067E+015
2103739241878964
1886525395647150
1666684719141297
1.38161890877739E+015
1.18025985955674E+015
918647890925329
645744461089171
401974611658385
464060839697903
848661627195585
1.07236436964005E+015
1.38904595865935E+015
1.65440272402072E+015
1.97962932937788E+015
2.23843465494864E+015
2515854512907752
2782595054931337
3070537869881090
3.35164779893945E+015
3513299494106997
3.73776839538139E+015
4.10328088288773E+015
4.40787592546755E+015
4616888745040235
4842663243504408
5063574978782711
5182962851148318
5430737053157564
5579074784168305
5800869947485199
5985701856231692
6169947418934872
6395612466137627
6555708389803589
6650485364244574
6770428310864516
6865322554514162
7056666813315042
7065149286074957
7101408925393385
7274209013331112
7198312381484781
7355945651768831
7387147079220284
7451215156886197
7653457634145440
7619363566213647
7689310740207169
7597410770352038
7642801772051647
7626133908527092
7488350406295969
7267047773655458
7365960442188604
7359838989496425
7197202232976109
7279697212296513
7078072352869559
7044885166818089
6765057381107777
6743597115922550
6821370055107480
6582828848793590
6387802336840708
6235938711622849
5990111178477400
5775657067622775
5650202468195697
5437139951950534
5083604559622256
4892166485454445
4678924156422666
4499220821068344
4288652229994068
4085088519650562
3.94044867768631E+015
3.54364094736159E+015
3345143266832303
3041838185547769
2750447655863340
2559212848323878
2.19253548667816E+015
1891779056195227
1.65366001903252E+015
1.38521516450971E+015
1.11265025178922E+015
758078199656370
462716152771907
559649317062830
952296335864205
1.2997806370255E+015
1.66345590692946E+015
1911065932046576
2.26006691497324E+015
2584691538392604
2948874974867431
3.24401811922906E+015
3.55192015349316E+015
3.83936261981929E+015
4096846712305783
4407868107520304
4800540143752860
5106245334841351
5233826415918841
5610659291034723
5784389714694504
5965711365128368
6358625757725493
6618525595910436
6780200744919719
6913989276109074
7176578488146008
7352497937034156
7590366799885048
7696370346568648
7860085979808658
8009956028479253
8174054741134229
8123081725102286
8281707874686348
8473403941113213
8551270695665076
8633359141728782
8695746360737199
8772831320564643
8908785423140631
9.03379439957479E+015
8777912986273348
8855936099770091
8864301303321346
8732803430674532
8749533837777038
8681830414642590
8688397490327686
8554866951397390
8458862559239073
8404215108002378
8267088313339764
8171709356960980
8002528978597299
7788778482994650
7738954705207602
7573003139055763
7413360656329962
7249660658984440
6960560787842550
6726397631985392
6602092270803206
6388912485349379
6030780140041533
5827873137266537
5455308861345968
5248602336210308
5032615907695827
4818763778779003
4.45103881220257E+015
4.13993141956836E+015
3.89099234341974E+015
3558229236919199
3.21839870610994E+015
2906024806022176
2557078548726222
2.21681021287129E+015
1.95454935461861E+015
1625210509011014
1.29763070153336E+015
882614972076983
553882017380811
622482940858890
1.04013097315237E+015
1.47633333964043E+015
1875431728507683
2.16761187086377E+015
2547001214728496
2918799331819138
3321267255948630
3652263506371987
4.07313487831424E+015
4.36064770616556E+015
4691995764214906
5058712215596843
5392640196236759
5654408523813057
6039215705117985
6225822287888903
6618298875440356
6995639917127109
7257955501010495
7436783226273473
7747570083070670
7861336851367724
8021057513565967
8291714847158876
8618739580382197
8950220543534692
9.04724126883475E+015
8943888006266921
9.26325115119097E+015
9.40788317520797E+015
9.51280002722463E+015
9.59238673017021E+015
9.64937956558016E+015
9.82043625128243E+015
9.88290164976329E+015
1.01180655028677E+016
1.00941425843006E+016
9.95545220018913E+015
1.00358988773316E+016
1.0060056334316E+016
1.01041495567731E+016
1.00430913887962E+016
1.00498930028986E+016
9.87649093302308E+015
9.82246891756592E+015
9.82903599325101E+015
9.75148195658892E+015
9.56424212009123E+015
9.4342296574208E+015
9.20664921314323E+015
9.0794512114807E+015
9.17318839893821E+015
8720998330335845
8506161140066257
8565108462287243
8333697223860030
7952415936762219
7586715818522025
7551292699558722
7312509136880265
6989979723322335
6578872967488044
6261112501749053
5996936246421554
5663461706721797
5589206843796740
5186254206938111
4730936959438080
4.49377952978641E+015
4025468853966578
3.68534124116204E+015
3320657456063585
2.94941441322728E+015
2.50243109748952E+015
2.20520056121371E+015
1.78032640028244E+015
1.50285963463987E+015
1.07909562221728E+015
666929534531403
701211233197056
1.20327589624356E+015
1.68223461620994E+015
2.10112022955217E+015
2463833891945094
2.92657037137984E+015
3343548405594493
3.66350571450909E+015
4170569954818236
4566947698044524
4892784103286734
5285901762512208
5761983477892734
5982480861967097
6356358553024688
6800347594967926
7145361424800067
7484441432673889
7727462322758683
8100566037039098
8297421948647116
8565499359649451
8909254499975282
9.10540679633132E+015
9.35042126296338E+015
9.56471119692587E+015
9.95154322656704E+015
9.88720152074758E+015
1.03402515635468E+016
1.05481307807691E+016
1.04865253564851E+016
1.05980092841869E+016
1.06997989573058E+016
1.08244170363778E+016
1.10265891521118E+016
1.09822613912374E+016
1.11782573286486E+016
1.12780143354841E+016
1.13328181456657E+016
1.13239056858073E+016
1.13504867064375E+016
1.12515896737988E+016
1.1191782377381E+016
1.14063068497608E+016
1.11075830855614E+016
1.08782826928901E+016
1.10072788224188E+016
1.0840209289811E+016
1.07607007663379E+016
1.04460283897603E+016
1.04045150898938E+016
1.03477567929012E+016
9.95639035385842E+015
9.77587395199071E+015
9.56158401802821E+015
9.4267244280664E+015
9.21048000729287E+015
9.09649433647298E+015
8750002914611689
8316966816757521
8050374815731576
7688364768590627
7358979015299566
6941742988825851
6769372887986555
6419738651333112
6096630709679115
5802113001097021
5456090656070384
4983878824575718
4556588917946009
4119612574680784
3774262573117145
3.27036460144189E+015
2.8993013713922E+015
2.44603242607014E+015
2.01231616680573E+015
1.68712083323754E+015
1.22639356624455E+015
720383967018640
760095230045364
1.30187584688694E+015
1.89116925631018E+015
2335861913505396
2.82860367446323E+015
3165815192945699
3701970014950373
4174690013015910
4553023934002671
5018715597495706
5527257429833996
5767862574220344
6322029946675568
6832862437556399
7253436727503371
7336752591284410
7814874790895665
8430014333908113
8629606527051583
8931692008566027
9.2909266844353E+015
9.52788866540587E+015
9.69925806899791E+015
1.01811563371281E+016
1.03221921054128E+016
1.05931621568955E+016
1.09567748832215E+016
1.10436322771041E+016
1.12282921910112E+016
1.14568107889581E+016
1.17124576638422E+016
1.18063512102446E+016
1.21189127410662E+016
1.2143304736468E+016
1.21436956338302E+016
1.2271284532855E+016
1.24149784032027E+016
1.25539033257315E+016
1.26432624627322E+016
1.25878332167711E+016
1.25294331508572E+016
1.25400655591093E+016
1.23627545156117E+016
1.23204594210208E+016
1.22912202983276E+016
1.20680960839792E+016
1.20146995043016E+016
1.18456754848828E+016
1.18706147365916E+016
1.17217610210628E+016
1.14688504277141E+016
1.12352501640585E+016
1.09979754651982E+016
1.08880551269453E+016
1.063397184151E+016
1.04376631862091E+016
1.02669192183966E+016
9.98664580969333E+015
9.53852107365793E+015
9.30890796309688E+015
8811295621005922
8678625056272483
8318452226733913
7888465128304968
7334219576377303
7013402293265846
6777589550540170
6306284600925827
5957588517941683
5462470101021620
5121021255132818
4706904589609524
4166363899200877
3.64610296394359E+015
3.20789920296103E+015
2.75943047724688E+015
2263475539971695
1.84376122422158E+015
1.28629467802932E+015
808008301525939
854775261940520
1.37946897328525E+015
2.0101349595246E+015
2.54075467488041E+015
3084954164599326
3527270165832315
4055137963758175
4493208819637583
5027807870140667
5542392975698695
6098381929861808
6480382468106084
6808806613886109
7432186273293905
7868998439667001
8286007745670638
8702469795367180
9.10196689954389E+015
9.4851244939803E+015
9.84811178452677E+015
1.02856041123101E+016
1.04580680285163E+016
1.07979141952201E+016
1.11963949662551E+016
1.15011385498325E+016
1.18711619928987E+016
1.20494893695381E+016
1.22944256566977E+016
1.25367038417943E+016
1.26993171444729E+016
1.29280702808371E+016
1.30824747389093E+016
1.32643201918085E+016
1.3300517287549E+016
1.35359938585432E+016
1.34566416940149E+016
1.36577974766072E+016
1.36426306589535E+016
1.36140951515123E+016
1.37323806933165E+016
1.38652857964673E+016
1.37259699765763E+016
1.37083014158045E+016
1.35611676486694E+016
1.35304431159998E+016
1.33389034085178E+016
1.32402409142965E+016
1.30823965594368E+016
1.30078915222E+016
1.28272969408598E+016
1.26808667889767E+016
1.24643878297858E+016
1.22475179732327E+016
1.20331498597978E+016
1.16488977527472E+016
1.16227858089517E+016
1.11968640430897E+016
1.07211419532824E+016
1.0542267320336E+016
1.01553571112224E+016
9.72763721749422E+015
9.24792797459241E+015
8837798462163634
8486069015648759
8166471332307391
7866965773383521
7398928725717237
6991168051303448
6350112013176600
6030717596463581
5574579464502913
5061995753439391
4.40429530562972E+015
3.97567634796851E+015
3467173605366437
3.0249905092366E+015
2485122162290949
1.96028772789582E+015
1.45395837462763E+015
841625474675839
966884625421812
1515892152695888
2.17940133530797E+015
2735163569001002
3.22061118518004E+015
3839902058179134
4410002407117960
4885388325193757
5528703750074166
6046517667844033
6761617484320345
7059395276903255
7360370609909028
7965628267604854
8502955781696150
8912538037817829
9.40311422738903E+015
9.81918537972337E+015
1.02826332923573E+016
1.08275442152755E+016
1.11642632030815E+016
1.15657929735417E+016
1.17780502412208E+016
1.18679566345286E+016
1.23761232053992E+016
1.27842982310169E+016
1.31647195439179E+016
1.32660401402022E+016
1.36912582908122E+016
1.37626361491514E+016
1.39333019374915E+016
1.40368115590042E+016
1.42208460371318E+016
1.4469065862134E+016
1.4693362768569E+016
1.4740270452034E+016
1.47663823958295E+016
1.50025625820756E+016
1.48768499903895E+016
1.52191197207389E+016
1.50981760768717E+016
1.49458824645555E+016
1.50378215241468E+016
1.48171990529165E+016
1.47172856871361E+016
1.43963589527633E+016
1.44754765788742E+016
1.43564092423456E+016
1.41389921294854E+016
1.40174230498387E+016
1.38655985143571E+016
1.35244232966218E+016
1.32488406562651E+016
1.29705999138453E+016
1.27809365137019E+016
1.25506197878889E+016
1.19060300376077E+016
1.17861027268822E+016
1.14020069787765E+016
1.10412087134584E+016
1.07025352388413E+016
1.00717832551823E+016
9.77704664407733E+015
9.29202119704948E+015
8894869477046021
8632186449642158
8038569715392889
7463200070011499
7086390648737349
6494673675668411
6049089772487362
5474845911509130
4885294509826827
4374290024106625
3.84691475685715E+015
3301026590533493
2645061727012028
2.15804270343692E+015
1549165336167044
907984210884291
1107099509245869
1675878625100432
2.3029718094492E+015
2967708409778619
3564327235769646
4122098681904428
4763295443081668
5291350871741389
5817772349427079
6465473642711464
7088259138128701
7631872281804308
7951477783092919
8553303361948558
9.11267748726839E+015
9.72443185912412E+015
1.03009272889087E+016
1.06977662910224E+016
1.11517544874909E+016
1.15804125348883E+016
1.19398817491749E+016
1.25179407684083E+016
1.258939680622E+016
1.30651970754997E+016
1.35169180672674E+016
1.38106383452306E+016
1.41865252487299E+016
1.43912772870546E+016
1.44841545003152E+016
1.49246176480513E+016
1.51964476737309E+016
1.54108157871658E+016
1.57168884217748E+016
1.57382314177513E+016
1.5757463567972E+016
1.58788762886738E+016
1.623224750411E+016
1.62109045081334E+016
1.59886402679819E+016
1.61540680316683E+016
1.61674367214559E+016
1.63103487970791E+016
1.6126392498424E+016
1.59725352966589E+016
1.57423749297907E+016
1.57509746717593E+016
1.55950066242383E+016
1.53429560050865E+016
1.53042571662279E+016
1.50763640040605E+016
1.49397062862326E+016
1.46544293912931E+016
1.43142705066996E+016
1.41909032991867E+016
1.38949158165227E+016
1.34517945667235E+016
1.31881733856504E+016
1.26904046846145E+016
1.22564304330911E+016
1.20043016344668E+016
1.16617191862276E+016
1.10989833435928E+016
1.06636800410378E+016
1.01602042385137E+016
9.68416943081668E+015
9.15637981236326E+015
8710287742611342
8079692117897185
7521177966774208
7041836167392866
6468757180554012
6003558047737359
5295259845363470
4712072252737916
4118979320954007
3.51937403911571E+015
2969529991486509
2322555767295831
1.65782698491366E+015
997155717151210
1.14740102728953E+015
1.82233223082533E+015
2.5191380507503E+015
3.14333859461873E+015
3.81183562757259E+015
4474414474462616
5091258329974290
5880425378641798
6281564251739782
6952531756022794
7602070266909559
8196101352362767
8769313244304772
9.32423113969543E+015
9.76062895486459E+015
1.0455879003288E+016
1.08810189744255E+016
1.13411833492169E+016
1.18342612819063E+016
1.23035726549734E+016
1.2792272537206E+016
1.35230942455903E+016
1.37214355671747E+016
1.4132894130635E+016
1.47229927886244E+016
1.49555767191382E+016
1.52900285022435E+016
1.55104946145289E+016
1.58064820971929E+016
1.61036422719435E+016
1.63640580946466E+016
1.64240999294817E+016
1.66272101988851E+016
1.71326404882202E+016
1.69956700525024E+016
1.72679691550166E+016
1.72746925896466E+016
1.7234039263977E+016
1.73461486274583E+016
1.73120623774737E+016
1.75067292638534E+016
1.72797742553553E+016
1.74196373315534E+016
1.72803215116624E+016
1.7290875740442E+016
1.70691587565976E+016
1.68796517153991E+016
1.67816928364297E+016
1.65664647487979E+016
1.63768013486545E+016
1.61639968246684E+016
1.58350957841065E+016
1.56171314149393E+016
1.51698666531007E+016
1.48895932443975E+016
1.4564132100623E+016
1.41830071724701E+016
1.37211228492849E+016
1.32630693202494E+016
1.28338640165449E+016
1.24195128126043E+016
1.21766873712006E+016
1.1459625249966E+016
1.10758422197501E+016
1.04411030829965E+016
9.90963902933833E+015
9.31477142353E+015
8587545970877990
8221744219323620
7542067521810609
6924582594624915
6374449282947678
5706092973044216
4959299198440070
4.44338504185054E+015
3.70616825262049E+015
3147951183492789
2.48610722364371E+015
1.81786036500167E+015
1.03958371684528E+015
1.21407248138775E+015
2.0075315830923E+015
2701233677961336
3356166572446572
4137726758445509
4833195709391727
5426319912964612
6120858528188775
6625139579278997
7484675971091213
8179214586315377
8764309758068507
9.47300667575185E+015
1.00652943589696E+016
1.04790201271307E+016
1.1025729177915E+016
1.18715528902609E+016
1.21947468293346E+016
1.29420644064041E+016
1.32987191596828E+016
1.3989512978177E+016
1.41860561718953E+016
1.46626382358994E+016
1.50617444427139E+016
1.56351908730733E+016
1.62304493762438E+016
1.63469367901818E+016
1.67492483553664E+016
1.67721549407918E+016
1.72622620535284E+016
1.73563901383481E+016
1.76999107402566E+016
1.80251373456138E+016
1.82355183059542E+016
1.81054276638113E+016
1.84674768006885E+016
1.85776316773588E+016
1.85759899084375E+016
1.87350069553837E+016
1.86641763533516E+016
1.88056030189985E+016
1.87244527266041E+016
1.86162523367449E+016
1.84656004933499E+016
1.82366909980408E+016
1.80440567779447E+016
1.7990660198267E+016
1.78404774317067E+016
1.7758388985643E+016
1.74865589599634E+016
1.72408408780794E+016
1.70813547542985E+016
1.6545590829656E+016
1.62935402105042E+016
1.59504886854303E+016
1.55649857068207E+016
1.51264770458956E+016
1.48538652254917E+016
1.42216278318562E+016
1.37388695895292E+016
1.33739278121717E+016
1.28941403897974E+016
1.23143614221703E+016
1.17911062131185E+016
1.10980451899235E+016
1.04757365892881E+016
9.93379648632279E+015
9.39904889482207E+015
8830136873864355
8167409485976690
7328410841574891
6817273450751539
6147791356444916
5376308504443704
4623784174509587
4069663709737829
3260232541813452
2614071384136167
1.89125525372987E+015
1.13521284753588E+015
1.19561430794428E+015
2.08289659452603E+015
2.83087087916404E+015
3670682590079234
4.39416324600129E+015
5152887208100025
5903167787175067
6554574787453186
7146323032311099
7967270036526125
8496310526538612
9.31922765345917E+015
1.01008660189305E+016
1.07080859813847E+016
1.12419735986885E+016
1.18381702555284E+016
1.25216152036131E+016
1.29896757051211E+016
1.35112109657792E+016
1.41573643055092E+016
1.48129773614047E+016
1.51187372781239E+016
1.55755399356003E+016
1.60352352335571E+016
1.67017934155944E+016
1.68959130456669E+016
1.73857856199862E+016
1.79138097768569E+016
1.80767357974253E+016
1.837178512642E+016
1.88405492431799E+016
1.89145852035822E+016
1.92260522217896E+016
1.94279897991063E+016
1.96447032967145E+016
1.9555031441824E+016
1.98286595953697E+016
1.97385968431169E+016
2.00649179610882E+016
1.9948039649788E+016
1.98990993000396E+016
1.98678275110629E+016
1.99541376486385E+016
1.95617548764539E+016
1.95840360260998E+016
1.93348780474283E+016
1.91527980561118E+016
1.89714216800472E+016
1.88726810063534E+016
1.86736360695171E+016
1.84415993953103E+016
1.80660252097008E+016
1.77251627098553E+016
1.74354295849866E+016
1.70876872915662E+016
1.65076737855218E+016
1.59350091498869E+016
1.56136133386794E+016
1.51082612288167E+016
1.46582601854427E+016
1.41819908393283E+016
1.35918140018665E+016
1.30204002377906E+016
1.23898827925489E+016
1.17688250634726E+016
1.11559761790027E+016
1.0606530846683E+016
1.00130704713786E+016
9.41937555765689E+015
8516168112538785
8010737823203669
7273622667287800
6441644539511258
5808054641002585
5077702009452913
4391450418307562
3537652399772563
2834044965745171
2.0495765033714E+015
1.22069428270355E+015
1.27448175974339E+015
2211251652380688
2.99815931429463E+015
3.79868584030791E+015
4556323107739708
5453995446208948
6264474219064042
7033236425424287
7602633159111136
8322439379828435
9.12854792017404E+015
9.8870451618027E+015
1.05452381402888E+016
1.12784834123188E+016
1.19270603156945E+016
1.27159693721029E+016
1.32373482738162E+016
1.37561472529388E+016
1.4425519895984E+016
1.49093726509252E+016
1.56736551735146E+016
1.60450858470847E+016
1.66329954798457E+016
1.72548350036464E+016
1.77506492178712E+016
1.80578163650944E+016
1.87487665425335E+016
1.85081301263581E+016
1.90816547361899E+016
1.94471437698545E+016
1.96365726315806E+016
2.0123474385947E+016
2.02002466278847E+016
2.07126348902671E+016
2.06356281099121E+016
2.08764208850323E+016
2.11222953258612E+016
2.08485889928431E+016
2.11491890643812E+016
2.10521683390811E+016
2.09343518741116E+016
2.11528634995859E+016
2.10603771836875E+016
2.09121489039381E+016
2.09419352829384E+016
2.07370268856689E+016
2.04587861432492E+016
2.00611653464111E+016
2.00755503693403E+016
1.98629803837715E+016
1.93850692687359E+016
1.93094697188848E+016
1.88099810694553E+016
1.82742953242852E+016
1.78991120360379E+016
1.75285413366646E+016
1.68103847028158E+016
1.67031224666259E+016
1.60728395598015E+016
1.5460772470056E+016
1.50031880178552E+016
1.45636630237883E+016
1.40674579122013E+016
1.30733277406336E+016
1.26492041026378E+016
1.18763218380799E+016
1.12289176267908E+016
1.05423454998084E+016
9.82004535392023E+015
9.19398413860768E+015
8344016914222324
7640284393039026
7003622041263399
6156195649732390
5346123410133992
4718740961737186
3754905335740598
3011848539919161
2.15409464007862E+015
1.25761844753773E+015
1.2793523408765E+015
2323626826068282
3209282979623244
4066059636058269
4793058368240196
5611957070277253
6593281444259035
7413775007533902
8158027949283696
8921372318203733
9.75883082699843E+015
1.05781516981867E+016
1.11264243384198E+016
1.19265130593874E+016
1.27045551691265E+016
1.33896418861324E+016
1.40506493256264E+016
1.45737481757333E+016
1.54060468393469E+016
1.5861207727902E+016
1.64403612597496E+016
1.70125568185498E+016
1.75825633521217E+016
1.81707857027725E+016
1.8676450530525E+016
1.90257564133942E+016
1.96664371900533E+016
1.98052057536372E+016
2.02706081530822E+016
2.0718107453338E+016
2.08761081671426E+016
2.12530114037836E+016
2.13240765442331E+016
2.15892613147551E+016
2.18394356265683E+016
2.20191702337116E+016
2.21873342789335E+016
2.20468457669559E+016
2.23221156894229E+016
2.23605018103917E+016
2.23208648178638E+016
2.21600496430514E+016
2.22186842473826E+016
2.21691184618546E+016
2.18936921804428E+016
2.18547588031668E+016
2.1676353247055E+016
2.11652940357041E+016
2.10893817679633E+016
2.08575014527015E+016
2.06429769803216E+016
2.03222847843661E+016
1.9957421186481E+016
1.94610597159491E+016
1.88174081193372E+016
1.84363613706567E+016
1.7773086726462E+016
1.7460994272475E+016
1.69710435186833E+016
1.64769492528523E+016
1.58787199297289E+016
1.52012166215498E+016
1.47571572180814E+016
1.37989896038368E+016
1.30743440737754E+016
1.25704773738891E+016
1.1843408280182E+016
1.11761464828927E+016
1.04288289058232E+016
9.52648143490192E+015
8892445913400331
8160216974512061
7324900583262262
6583094658999892
5708024006013525
4857056084380911
4038587369442283
3122886844628003
2287429730327809
1348165912519623
1.438729013396E+015
2489891110109888
3336004086503876
4305249731993425
5167866395019840
6036831231208515
6893076267230939
7860555056643307
8570815563775480
9.376376847814E+015
1.01754492356399E+016
1.09912520305682E+016
1.17312207372282E+016
1.26735179185671E+016
1.3453123617755E+016
1.40630016822722E+016
1.49078872409488E+016
1.52996445773538E+016
1.62437398865589E+016
1.6910610786486E+016
1.72993973029382E+016
1.78978611644788E+016
1.83538038477584E+016
1.90972124512058E+016
1.95967792801078E+016
1.98954248648348E+016
2.06267938295262E+016
2.09214522611587E+016
2.10991542020185E+016
2.18352921145289E+016
2.19421634533566E+016
2.21203344710511E+016
2.26946408756072E+016
2.26894028509536E+016
2.28105810332382E+016
2.31057085417053E+016
2.32847395335966E+016
2.34239771740152E+016
2.33553355972114E+016
2.34249153276845E+016
2.33503321109752E+016
2.35503152014808E+016
2.34856607777716E+016
2.31126665147526E+016
2.31388566380205E+016
2.30444158353111E+016
2.28004177018207E+016
2.24918433240936E+016
2.24636987140147E+016
2.19816440869396E+016
2.15819124443456E+016
2.12450370975946E+016
2.08001958994017E+016
2.03026617367832E+016
1.99019137610475E+016
1.94698158168626E+016
1.90027716484963E+016
1.83452822852622E+016
1.79316346965736E+016
1.71393639228502E+016
1.65274531920495E+016
1.60660379456991E+016
1.51916787259119E+016
1.46152614755998E+016
1.38810780499005E+016
1.33177949509586E+016
1.24370250144312E+016
1.17112067922832E+016
1.09363700409142E+016
1.00430913887962E+016
9.52523056334285E+015
8606699941626187
7634420932605903
6865525821142510
6053616363941733
5169125084526151
4243347225714146
3.2751648210498E+015
2.37922024892152E+015
1422053331924204
1.54312206294731E+015
2.52457934203224E+015
3.52551894564962E+015
4.49089470725331E+015
5491193239196674
6427181337109556
7258479303475856
8113700188409294
8891038682896381
9.82199984073127E+015
1.08509198775355E+016
1.14378913566272E+016
1.24195128126043E+016
1.32403972732414E+016
1.39629319575469E+016
1.4667876260553E+016
1.55664711167971E+016
1.61535207753613E+016
1.6877697228588E+016
1.76395561875317E+016
1.82119081052768E+016
1.88912877207946E+016
1.95587840565012E+016
1.99021482994648E+016
2.03816230039493E+016
2.10558427742859E+016
2.15159289696048E+016
2.21856925100122E+016
2.22863094910446E+016
2.28646030486953E+016
2.319647490921E+016
2.3496527724441E+016