/*--------------------------------*- C++ -*----------------------------------*\
| =========                 |                                                 |
| \\      /  F ield         | OpenFOAM: The Open Source CFD Toolbox           |
|  \\    /   O peration     | Version:  v1806                                 |
|   \\  /    A nd           | Web:      www.OpenFOAM.com                      |
|    \\/     M anipulation  |                                                 |
\*---------------------------------------------------------------------------*/
FoamFile
{
    version     2.0;
    format      ascii;
    class       volScalarField;
    object      dnp3;
}
// * * * * * * * * * * * * * * * * * * * * * * * * * * * * * * * * * * * * * //

dimensions      [0 -3 0 0 0 0 0];

internalField   nonuniform List<scalar> 
6400
(
1.904883E+016
2.843004E+016
4.488249E+016
6.280786E+016
6.502326E+016
6.39178E+016
7.851532E+016
1.023642E+017
1.141476E+017
1.070434E+017
8.983504E+016
1.222788E+017
1.346177E+017
1.314139E+017
1.3014E+017
1.943176E+017
1.798167E+017
1.622881E+017
1.510147E+017
1.928709E+017
1.983767E+017
2.270018E+017
2.123623E+017
2.160614E+017
2.185314E+017
2.355272E+017
2.334806E+017
2.797984E+017
2.559671E+017
2.456455E+017
2.457592E+017
2.707246E+017
2.476807E+017
2.570109E+017
2.776458E+017
2.594532E+017
2.4662E+017
2.273563E+017
2.588845E+017
2.598002E+017
2.320166E+017
2.458495E+017
2.433423E+017
2.696876E+017
2.668699E+017
2.404868E+017
2.592106E+017
2.516364E+017
2.453683E+017
2.754535E+017
2.505682E+017
2.701037E+017
2.485045E+017
2.247338E+017
2.011016E+017
1.877228E+017
1.913536E+017
1.75193E+017
2.040761E+017
1.884501E+017
1.864126E+017
1.884947E+017
1.790914E+017
1.688978E+017
1.686892E+017
1.426147E+017
1.281334E+017
1.505446E+017
1.082757E+017
1.031341E+017
9.291241E+016
9.903209E+016
8.736887E+016
9.092302E+016
7.902497E+016
7.06634E+016
4.910845E+016
3.231909E+016
2.975876E+016
1.340107E+016
3.380461E+016
5.472377E+016
5.489954E+016
7.933149E+016
1.075032E+017
1.084931E+017
1.28268E+017
1.622602E+017
1.878007E+017
1.838744E+017
1.955891E+017
2.070811E+017
2.53863E+017
2.213499E+017
2.46314E+017
2.878505E+017
2.951797E+017
2.998343E+017
3.059034E+017
3.31523E+017
3.392878E+017
3.865676E+017
3.611979E+017
3.273719E+017
3.351173E+017
3.288837E+017
3.787321E+017
4.025139E+017
3.938644E+017
3.943731E+017
4.099164E+017
4.103355E+017
4.439735E+017
3.910612E+017
4.442186E+017
4.023808E+017
3.846538E+017
3.858553E+017
3.967437E+017
4.376772E+017
4.913299E+017
4.232624E+017
3.939789E+017
4.316292E+017
4.145798E+017
4.335236E+017
4.818686E+017
4.667261E+017
4.198216E+017
4.167688E+017
4.468867E+017
4.180113E+017
3.741404E+017
3.895654E+017
3.71037E+017
3.853973E+017
3.192072E+017
3.338937E+017
3.07353E+017
3.266136E+017
2.992614E+017
3.151428E+017
2.83312E+017
2.983372E+017
3.067878E+017
2.272029E+017
2.529794E+017
2.668636E+017
2.285111E+017
1.921468E+017
1.814713E+017
1.585136E+017
1.844229E+017
1.224063E+017
1.263606E+017
9.516266E+016
8.858237E+016
7.576745E+016
4.910673E+016
3.197931E+016
3.457554E+016
6.701649E+016
1.070209E+017
1.105205E+017
1.695354E+017
1.749624E+017
1.785293E+017
2.172781E+017
2.362223E+017
2.767169E+017
2.734982E+017
3.158049E+017
2.832464E+017
3.447126E+017
3.336764E+017
3.006168E+017
3.194303E+017
3.836019E+017
4.28094E+017
3.834518E+017
4.522421E+017
4.87315E+017
4.671511E+017
5.324676E+017
5.020155E+017
4.802668E+017
4.982694E+017
5.143061E+017
4.741594E+017
5.523912E+017
5.188233E+017
5.548895E+017
5.477205E+017
5.786308E+017
5.804221E+017
6.045447E+017
5.546981E+017
5.551203E+017
5.858907E+017
6.09766E+017
5.897471E+017
5.668977E+017
6.361509E+017
6.104596E+017
6.110183E+017
5.998714E+017
6.169029E+017
5.929736E+017
5.703023E+017
5.954838E+017
5.533438E+017
5.28941E+017
5.708743E+017
5.409866E+017
5.003085E+017
5.000987E+017
5.087829E+017
4.39901E+017
3.935626E+017
4.196828E+017
4.409896E+017
4.389863E+017
4.759503E+017
4.217825E+017
3.903503E+017
3.984906E+017
3.339961E+017
2.996097E+017
3.023376E+017
2.629427E+017
2.424849E+017
2.484295E+017
2.246889E+017
2.010494E+017
1.646459E+017
1.170136E+017
9.734093E+016
7.944982E+016
6.105077E+016
3.685156E+016
4.538199E+016
9.028139E+016
1.208885E+017
1.676857E+017
1.840855E+017
2.028537E+017
2.511349E+017
2.972941E+017
3.389966E+017
3.399994E+017
3.461881E+017
3.42829E+017
3.419971E+017
4.127605E+017
4.098783E+017
4.556369E+017
4.545724E+017
4.797321E+017
5.122802E+017
5.963878E+017
5.983024E+017
6.578949E+017
6.33936E+017
6.203683E+017
6.54574E+017
6.640313E+017
6.582575E+017
7.080571E+017
6.949214E+017
6.924578E+017
6.753526E+017
6.873E+017
6.966552E+017
7.025565E+017
7.696243E+017
7.316243E+017
7.037852E+017
7.571894E+017
7.950307E+017
7.480749E+017
7.932588E+017
7.671729E+017
7.491195E+017
8.042326E+017
7.707997E+017
7.842791E+017
7.166049E+017
7.778975E+017
7.377763E+017
7.484379E+017
6.561223E+017
7.339048E+017
7.204401E+017
6.549706E+017
6.32651E+017
6.178982E+017
5.422317E+017
6.066148E+017
5.876537E+017
5.210604E+017
4.842778E+017
5.16206E+017
5.099067E+017
5.130704E+017
4.709291E+017
4.758173E+017
4.081856E+017
3.760169E+017
3.247762E+017
2.870894E+017
3.327611E+017
2.81039E+017
2.530389E+017
2.310039E+017
1.749375E+017
1.59333E+017
1.488524E+017
1.13209E+017
8.54248E+016
4.579066E+016
4.8501E+016
8.578573E+016
1.643813E+017
1.925952E+017
2.05946E+017
2.143233E+017
3.058083E+017
2.797297E+017
3.326488E+017
3.714801E+017
4.23212E+017
3.986862E+017
4.941211E+017
5.053321E+017
5.351461E+017
5.596029E+017
5.959734E+017
5.925006E+017
6.592364E+017
6.638318E+017
7.189272E+017
7.226532E+017
7.672497E+017
7.908378E+017
7.235805E+017
8.301608E+017
8.103628E+017
8.489455E+017
7.807265E+017
8.317414E+017
8.722638E+017
8.614924E+017
9.249555E+017
8.7187E+017
9.102931E+017
9.241896E+017
9.005141E+017
9.450756E+017
9.389142E+017
9.871066E+017
8.575505E+017
8.759319E+017
8.833395E+017
8.88817E+017
9.358718E+017
9.028599E+017
8.87367E+017
8.895798E+017
9.116763E+017
8.931993E+017
8.942055E+017
7.958337E+017
7.762473E+017
7.741934E+017
8.026261E+017
7.393032E+017
7.000488E+017
6.995193E+017
6.863502E+017
7.255209E+017
5.685301E+017
6.071701E+017
6.310999E+017
6.054853E+017
5.835562E+017
5.276306E+017
4.740306E+017
4.518146E+017
3.872907E+017
3.547754E+017
3.277927E+017
3.603607E+017
2.966527E+017
2.697328E+017
2.720947E+017
1.756414E+017
1.758662E+017
1.198079E+017
9.548039E+016
7.646719E+016
5.733286E+016
1.119348E+017
1.17946E+017
1.980064E+017
2.26181E+017
2.49048E+017
3.273994E+017
3.331696E+017
4.248612E+017
5.417339E+017
5.295924E+017
5.474191E+017
5.899285E+017
6.185618E+017
6.46246E+017
6.677949E+017
6.950719E+017
7.714213E+017
7.543785E+017
8.238965E+017
8.38234E+017
8.572546E+017
8.380894E+017
9.323407E+017
8.383239E+017
8.841048E+017
9.779571E+017
9.585334E+017
1.00979E+018
1.027093E+018
9.827704E+017
1.043311E+018
1.001058E+018
1.070256E+018
1.067637E+018
1.091504E+018
1.132984E+018
1.096343E+018
1.072637E+018
1.060909E+018
1.053679E+018
1.071612E+018
1.119192E+018
1.022146E+018
1.12981E+018
1.065317E+018
1.089555E+018
1.12741E+018
1.082399E+018
1.048558E+018
9.800774E+017
9.728587E+017
9.78459E+017
8.524016E+017
9.357994E+017
8.232245E+017
9.338392E+017
8.554235E+017
8.20026E+017
7.495942E+017
7.136195E+017
7.159179E+017
7.217085E+017
7.552919E+017
6.563206E+017
6.483295E+017
5.819478E+017
5.31077E+017
5.578805E+017
4.919849E+017
4.27733E+017
3.704523E+017
3.467662E+017
3.159411E+017
3.019512E+017
2.126914E+017
1.811604E+017
1.494195E+017
1.018294E+017
5.99921E+016
5.872142E+016
1.037703E+017
1.664115E+017
2.096586E+017
2.630932E+017
2.986626E+017
3.991852E+017
4.333737E+017
4.88374E+017
5.556926E+017
5.741143E+017
6.199734E+017
6.957383E+017
7.165381E+017
7.52088E+017
7.839026E+017
7.36287E+017
7.960715E+017
8.978831E+017
9.093134E+017
9.038646E+017
9.766459E+017
9.464317E+017
9.97111E+017
1.019683E+018
1.076174E+018
1.025938E+018
1.178332E+018
1.14547E+018
1.124014E+018
1.189529E+018
1.234469E+018
1.161046E+018
1.204963E+018
1.2311E+018
1.177628E+018
1.32667E+018
1.351695E+018
1.251219E+018
1.21334E+018
1.348087E+018
1.252448E+018
1.235338E+018
1.238143E+018
1.256145E+018
1.29556E+018
1.195578E+018
1.177563E+018
1.291276E+018
1.204072E+018
1.121426E+018
1.089878E+018
1.062786E+018
1.11051E+018
1.00795E+018
1.026949E+018
9.577671E+017
9.617214E+017
9.319746E+017
9.17492E+017
9.021936E+017
8.124677E+017
8.416015E+017
7.25835E+017
7.430867E+017
7.144878E+017
6.900189E+017
6.833601E+017
5.634988E+017
5.153096E+017
4.883295E+017
4.113283E+017
3.679904E+017
3.880562E+017
3.212749E+017
2.453041E+017
1.802761E+017
1.809528E+017
1.17654E+017
7.15673E+016
8.310265E+016
1.168468E+017
2.024453E+017
2.398713E+017
2.915827E+017
4.031748E+017
4.074545E+017
4.881827E+017
5.062521E+017
5.821251E+017
6.267265E+017
7.063124E+017
6.963986E+017
7.862779E+017
8.180798E+017
7.939524E+017
8.224721E+017
8.909884E+017
9.995923E+017
1.053114E+018
1.016576E+018
1.109408E+018
1.057E+018
1.068982E+018
1.050902E+018
1.255177E+018
1.103202E+018
1.20487E+018
1.21149E+018
1.256865E+018
1.243965E+018
1.45068E+018
1.380179E+018
1.384297E+018
1.344859E+018
1.394372E+018
1.365992E+018
1.440058E+018
1.440193E+018
1.438359E+018
1.439099E+018
1.411481E+018
1.354043E+018
1.416098E+018
1.403922E+018
1.386988E+018
1.388363E+018
1.350802E+018
1.368489E+018
1.368091E+018
1.286773E+018
1.284474E+018
1.289067E+018
1.271421E+018
1.162472E+018
1.1704E+018
1.185718E+018
1.071421E+018
1.028856E+018
1.050092E+018
1.008408E+018
1.012584E+018
9.178948E+017
8.742313E+017
8.022215E+017
7.617027E+017
7.431498E+017
7.232298E+017
5.896514E+017
6.623652E+017
5.979429E+017
5.026058E+017
4.392913E+017
3.923494E+017
3.577063E+017
3.101973E+017
2.231663E+017
1.547882E+017
1.351913E+017
7.505653E+016
8.949033E+016
1.429282E+017
2.347426E+017
2.550945E+017
3.283368E+017
3.91865E+017
4.346987E+017
4.889882E+017
6.446344E+017
6.553838E+017
7.080968E+017
7.123793E+017
7.82723E+017
8.757026E+017
9.152744E+017
8.758076E+017
9.334913E+017
9.885003E+017
1.09562E+018
1.097597E+018
1.066514E+018
1.1262E+018
1.159968E+018
1.139891E+018
1.244883E+018
1.374292E+018
1.306423E+018
1.326964E+018
1.362817E+018
1.466912E+018
1.41088E+018
1.499541E+018
1.504907E+018
1.514897E+018
1.475572E+018
1.417301E+018
1.495939E+018
1.560419E+018
1.44816E+018
1.567934E+018
1.594726E+018
1.574299E+018
1.463103E+018
1.543316E+018
1.600692E+018
1.520034E+018
1.482985E+018
1.533806E+018
1.441326E+018
1.418852E+018
1.475517E+018
1.491114E+018
1.374872E+018
1.34245E+018
1.323874E+018
1.234042E+018
1.230876E+018
1.266326E+018
1.16366E+018
1.182439E+018
1.097356E+018
1.029444E+018
9.775365E+017
9.6234E+017
9.242823E+017
8.786231E+017
7.980095E+017
7.583503E+017
7.41173E+017
6.716277E+017
6.727716E+017
5.760077E+017
5.054333E+017
4.519691E+017
3.729873E+017
3.351417E+017
2.696704E+017
1.935565E+017
1.400229E+017
9.128793E+016
1.069395E+017
1.685787E+017
2.143373E+017
2.635043E+017
3.575114E+017
4.168302E+017
4.719389E+017
6.316383E+017
7.132749E+017
6.949293E+017
7.507593E+017
7.611584E+017
9.389617E+017
9.396123E+017
1.034547E+018
9.96777E+017
1.069174E+018
1.178823E+018
1.169318E+018
1.195085E+018
1.20345E+018
1.256401E+018
1.38931E+018
1.370332E+018
1.370924E+018
1.392872E+018
1.491069E+018
1.541743E+018
1.565123E+018
1.661991E+018
1.674708E+018
1.662645E+018
1.600756E+018
1.649416E+018
1.606411E+018
1.592764E+018
1.584989E+018
1.652611E+018
1.682474E+018
1.663885E+018
1.704786E+018
1.710903E+018
1.655572E+018
1.714358E+018
1.624532E+018
1.557241E+018
1.720583E+018
1.685594E+018
1.563646E+018
1.559107E+018
1.609721E+018
1.51452E+018
1.419733E+018
1.495584E+018
1.525235E+018
1.46293E+018
1.35465E+018
1.249317E+018
1.264355E+018
1.276295E+018
1.155785E+018
1.106297E+018
1.121158E+018
1.093737E+018
1.035842E+018
9.994361E+017
9.865845E+017
9.816753E+017
7.904561E+017
7.851276E+017
6.800466E+017
6.822046E+017
5.876336E+017
4.777883E+017
3.933864E+017
3.561594E+017
2.762904E+017
2.29506E+017
1.904113E+017
1.008604E+017
1.127998E+017
1.93474E+017
2.554588E+017
3.080108E+017
4.390755E+017
5.218294E+017
5.102056E+017
6.075635E+017
7.025349E+017
7.27237E+017
8.627361E+017
9.631201E+017
9.170627E+017
1.028811E+018
1.078716E+018
1.100025E+018
1.063665E+018
1.199648E+018
1.208269E+018
1.312712E+018
1.317946E+018
1.357676E+018
1.465791E+018
1.588314E+018
1.532732E+018
1.585805E+018
1.647381E+018
1.595559E+018
1.644366E+018
1.745686E+018
1.80982E+018
1.766423E+018
1.754353E+018
1.779649E+018
1.795942E+018
1.856896E+018
1.78787E+018
1.82299E+018
1.725898E+018
1.790322E+018
1.888884E+018
1.830696E+018
1.829911E+018
1.767983E+018
1.800688E+018
1.746016E+018
1.714563E+018
1.759413E+018
1.693771E+018
1.75553E+018
1.697222E+018
1.677569E+018
1.559184E+018
1.587717E+018
1.624043E+018
1.577623E+018
1.515252E+018
1.375079E+018
1.395769E+018
1.462758E+018
1.341947E+018
1.316543E+018
1.173276E+018
1.234472E+018
1.13294E+018
1.056259E+018
1.01659E+018
9.817246E+017
8.295129E+017
8.26242E+017
7.662126E+017
7.096846E+017
5.916228E+017
5.072383E+017
5.047818E+017
3.79101E+017
2.999972E+017
2.487819E+017
1.909551E+017
1.202653E+017
1.048007E+017
2.207304E+017
2.6693E+017
4.001938E+017
4.63284E+017
5.399945E+017
6.419056E+017
6.33563E+017
7.082733E+017
7.890612E+017
8.831915E+017
9.679335E+017
1.040502E+018
1.084243E+018
1.206428E+018
1.190308E+018
1.176919E+018
1.237877E+018
1.260579E+018
1.256642E+018
1.435887E+018
1.539079E+018
1.531637E+018
1.587851E+018
1.642319E+018
1.61803E+018
1.757885E+018
1.70596E+018
1.807989E+018
1.812076E+018
1.866501E+018
1.849242E+018
1.860272E+018
1.90589E+018
1.915797E+018
1.913282E+018
2.006894E+018
1.994686E+018
1.94701E+018
1.937284E+018
2.042771E+018
1.926929E+018
1.96527E+018
1.945356E+018
1.901851E+018
1.906865E+018
1.921352E+018
1.930652E+018
1.838683E+018
1.976004E+018
1.966903E+018
1.743604E+018
1.667594E+018
1.668027E+018
1.700363E+018
1.662291E+018
1.615048E+018
1.609595E+018
1.496312E+018
1.502886E+018
1.418235E+018
1.360967E+018
1.280014E+018
1.173317E+018
1.235433E+018
1.110108E+018
1.028361E+018
9.915762E+017
9.52977E+017
7.732309E+017
7.886144E+017
6.887442E+017
6.094033E+017
5.448139E+017
4.671682E+017
4.408426E+017
3.158232E+017
3.013621E+017
2.058675E+017
9.835402E+016
1.217617E+017
2.249052E+017
3.17406E+017
3.857456E+017
4.875371E+017
5.956603E+017
6.28993E+017
6.510371E+017
8.132865E+017
9.250141E+017
9.575955E+017
9.872272E+017
1.080375E+018
1.30712E+018
1.197592E+018
1.329036E+018
1.428369E+018
1.329766E+018
1.350625E+018
1.413139E+018
1.507915E+018
1.623203E+018
1.712583E+018
1.639576E+018
1.70519E+018
1.784825E+018
1.774045E+018
1.948009E+018
1.969652E+018
2.010685E+018
1.982433E+018
2.098405E+018
2.031745E+018
2.041893E+018
2.153619E+018
2.064598E+018
2.052945E+018
2.075367E+018
2.119348E+018
2.164714E+018
2.130663E+018
2.146061E+018
2.110855E+018
2.136264E+018
2.0775E+018
1.963384E+018
2.013989E+018
1.931415E+018
2.008196E+018
1.926026E+018
2.01842E+018
1.836678E+018
1.815965E+018
1.842169E+018
1.823001E+018
1.806335E+018
1.787552E+018
1.654785E+018
1.519892E+018
1.563242E+018
1.486009E+018
1.433668E+018
1.425563E+018
1.317898E+018
1.232389E+018
1.177621E+018
1.09853E+018
1.004067E+018
9.516811E+017
9.290575E+017
8.144829E+017
7.095049E+017
6.690361E+017
5.869098E+017
5.355722E+017
4.714943E+017
3.521788E+017
2.510108E+017
1.972442E+017
1.279009E+017
1.295576E+017
2.291986E+017
3.300706E+017
3.885672E+017
4.947415E+017
6.003506E+017
7.128089E+017
7.55503E+017
8.48193E+017
8.437483E+017
1.029055E+018
1.028063E+018
1.202492E+018
1.269794E+018
1.288908E+018
1.448507E+018
1.492229E+018
1.548226E+018
1.53387E+018
1.58734E+018
1.701955E+018
1.652602E+018
1.793724E+018
1.813333E+018
1.909789E+018
1.922216E+018
2.036616E+018
2.1062E+018
2.040699E+018
2.177983E+018
2.188983E+018
2.146998E+018
2.077531E+018
2.290527E+018
2.233799E+018
2.332777E+018
2.182176E+018
2.207067E+018
2.186871E+018
2.280437E+018
2.222585E+018
2.159798E+018
2.256494E+018
2.330023E+018
2.230015E+018
2.163278E+018
2.185548E+018
2.153822E+018
2.095637E+018
2.185962E+018
2.138335E+018
1.903156E+018
2.110454E+018
1.935627E+018
1.982334E+018
1.927177E+018
1.888351E+018
1.76049E+018
1.74696E+018
1.671137E+018
1.689223E+018
1.54195E+018
1.510463E+018
1.458486E+018
1.34725E+018
1.184187E+018
1.135715E+018
1.112801E+018
1.115869E+018
9.794607E+017
8.32522E+017
7.583766E+017
6.357665E+017
6.257674E+017
5.414246E+017
4.946114E+017
3.994925E+017
3.547967E+017
2.171108E+017
1.449614E+017
1.635146E+017
2.377378E+017
3.497718E+017
4.306974E+017
5.043675E+017
6.369288E+017
7.182915E+017
7.641439E+017
9.218729E+017
9.606326E+017
1.024972E+018
1.149442E+018
1.193623E+018
1.309408E+018
1.369092E+018
1.521743E+018
1.652043E+018
1.563594E+018
1.61562E+018
1.607147E+018
1.779234E+018
1.766362E+018
1.879784E+018
1.968478E+018
2.048132E+018
2.000343E+018
2.117855E+018
2.26036E+018
2.225222E+018
2.167094E+018
2.247534E+018
2.326877E+018
2.329584E+018
2.351601E+018
2.303214E+018
2.297935E+018
2.401279E+018
2.297553E+018
2.371389E+018
2.356552E+018
2.269452E+018
2.317833E+018
2.272868E+018
2.310982E+018
2.349159E+018
2.291711E+018
2.262025E+018
2.257351E+018
2.402594E+018
2.342209E+018
2.15279E+018
2.244228E+018
2.235322E+018
2.100467E+018
2.037124E+018
1.925172E+018
1.904478E+018
1.84138E+018
1.880188E+018
1.822843E+018
1.720189E+018
1.723964E+018
1.55929E+018
1.457893E+018
1.402763E+018
1.28193E+018
1.241368E+018
1.156889E+018
1.127629E+018
9.7498E+017
9.244708E+017
8.870642E+017
8.059771E+017
6.971594E+017
5.953205E+017
5.190983E+017
4.936424E+017
3.197569E+017
2.496274E+017
1.525274E+017
1.565533E+017
2.37667E+017
3.638138E+017
4.990328E+017
5.273999E+017
6.244115E+017
7.021517E+017
8.355419E+017
9.818015E+017
9.809102E+017
1.105575E+018
1.239221E+018
1.28577E+018
1.380976E+018
1.431283E+018
1.478099E+018
1.513472E+018
1.644446E+018
1.67616E+018
1.916933E+018
1.84236E+018
1.984385E+018
1.972628E+018
1.992106E+018
2.104646E+018
2.105336E+018
2.307909E+018
2.24463E+018
2.198772E+018
2.303544E+018
2.444425E+018
2.345675E+018
2.473646E+018
2.515355E+018
2.372295E+018
2.389265E+018
2.428323E+018
2.475529E+018
2.438925E+018
2.553624E+018
2.560283E+018
2.505185E+018
2.509281E+018
2.536712E+018
2.624596E+018
2.4647E+018
2.450181E+018
2.411197E+018
2.50812E+018
2.36062E+018
2.309752E+018
2.360062E+018
2.273954E+018
2.271214E+018
2.123424E+018
2.167927E+018
2.016422E+018
1.986744E+018
1.983191E+018
2.078513E+018
1.829566E+018
1.720714E+018
1.568658E+018
1.599178E+018
1.461172E+018
1.545569E+018
1.293393E+018
1.239659E+018
1.149089E+018
1.061554E+018
1.04656E+018
8.833075E+017
7.939679E+017
6.470203E+017
5.626145E+017
5.373693E+017
4.880326E+017
3.277872E+017
2.286964E+017
1.398189E+017
1.884277E+017
2.446492E+017
3.615262E+017
4.98501E+017
6.450879E+017
7.085929E+017
8.058841E+017
9.163438E+017
9.962154E+017
1.014354E+018
1.215741E+018
1.285421E+018
1.357918E+018
1.399415E+018
1.438186E+018
1.55323E+018
1.657179E+018
1.699856E+018
1.798592E+018
1.901202E+018
1.945427E+018
2.015971E+018
2.161202E+018
2.130813E+018
2.213896E+018
2.334974E+018
2.415549E+018
2.461754E+018
2.398979E+018
2.439929E+018
2.509252E+018
2.432433E+018
2.552571E+018
2.598979E+018
2.690257E+018
2.561186E+018
2.577567E+018
2.690382E+018
2.633544E+018
2.630272E+018
2.63689E+018
2.700595E+018
2.596213E+018
2.672016E+018
2.774867E+018
2.73843E+018
2.634156E+018
2.642197E+018
2.552574E+018
2.621952E+018
2.389453E+018
2.464605E+018
2.429394E+018
2.25786E+018
2.273978E+018
2.271885E+018
2.245415E+018
2.060999E+018
1.988749E+018
1.937386E+018
1.929513E+018
1.790691E+018
1.79549E+018
1.736652E+018
1.614679E+018
1.499436E+018
1.356823E+018
1.283622E+018
1.2625E+018
1.069177E+018
1.078492E+018
1.009501E+018
8.591839E+017
7.692479E+017
6.422798E+017
5.682149E+017
5.246634E+017
3.720273E+017
2.657457E+017
1.809846E+017
1.827762E+017
2.695544E+017
4.078899E+017
4.991696E+017
5.899088E+017
7.130622E+017
7.791884E+017
9.70836E+017
9.913538E+017
1.107343E+018
1.272852E+018
1.377506E+018
1.346025E+018
1.421005E+018
1.47837E+018
1.711357E+018
1.756851E+018
1.737768E+018
1.858814E+018
1.865084E+018
2.063998E+018
2.222831E+018
2.271686E+018
2.187758E+018
2.319482E+018
2.430706E+018
2.379065E+018
2.419373E+018
2.552076E+018
2.568174E+018
2.676267E+018
2.679791E+018
2.648713E+018
2.662183E+018
2.774947E+018
2.886141E+018
2.808995E+018
2.793929E+018
2.797499E+018
2.760673E+018
2.820175E+018
2.728426E+018
2.806428E+018
2.842953E+018
2.79293E+018
2.782906E+018
2.749197E+018
2.669452E+018
2.660393E+018
2.566752E+018
2.624634E+018
2.42696E+018
2.478421E+018
2.421247E+018
2.503893E+018
2.442739E+018
2.35561E+018
2.142203E+018
2.049664E+018
2.019919E+018
2.040535E+018
1.923634E+018
1.854625E+018
1.743296E+018
1.581848E+018
1.531699E+018
1.433992E+018
1.423353E+018
1.315984E+018
1.151687E+018
1.122223E+018
9.87443E+017
9.415777E+017
8.767804E+017
6.508886E+017
5.870851E+017
4.967552E+017
3.850988E+017
3.036142E+017
2.117356E+017
1.811461E+017
2.898477E+017
4.640911E+017
5.639866E+017
6.756387E+017
7.748945E+017
8.651177E+017
1.075434E+018
1.145421E+018
1.176314E+018
1.353628E+018
1.379532E+018
1.479626E+018
1.470395E+018
1.601829E+018
1.72703E+018
1.770535E+018
1.862753E+018
1.990109E+018
1.928151E+018
2.118118E+018
2.214116E+018
2.157008E+018
2.318939E+018
2.461192E+018
2.513473E+018
2.462298E+018
2.663452E+018
2.565595E+018
2.770309E+018
2.676701E+018
2.672227E+018
2.702533E+018
2.694331E+018
2.737376E+018
2.776345E+018
2.846525E+018
2.908004E+018
2.899593E+018
2.818413E+018
2.896518E+018
2.99512E+018
2.800487E+018
2.908337E+018
2.952899E+018
2.849692E+018
2.792338E+018
2.866954E+018
2.751537E+018
2.648577E+018
2.723147E+018
2.579532E+018
2.674634E+018
2.648761E+018
2.502696E+018
2.437474E+018
2.340086E+018
2.216837E+018
2.155339E+018
2.060384E+018
2.122954E+018
1.986812E+018
1.894427E+018
1.803802E+018
1.734347E+018
1.704358E+018
1.596209E+018
1.462054E+018
1.385527E+018
1.156646E+018
1.132005E+018
1.075863E+018
9.763947E+017
8.510093E+017
7.18402E+017
6.618958E+017
5.394111E+017
4.425697E+017
3.360495E+017
1.864424E+017
1.790691E+017
3.050973E+017
4.308087E+017
5.6564E+017
7.309336E+017
7.33752E+017
9.262608E+017
1.029762E+018
1.166356E+018
1.2463E+018
1.399316E+018
1.412526E+018
1.625392E+018
1.573913E+018
1.727386E+018
1.743329E+018
1.74743E+018
1.873759E+018
1.97585E+018
2.108539E+018
2.157026E+018
2.37733E+018
2.390725E+018
2.447613E+018
2.442809E+018
2.525253E+018
2.625263E+018
2.754503E+018
2.915272E+018
2.840537E+018
2.730191E+018
2.771735E+018
2.855491E+018
2.887806E+018
2.829956E+018
2.900742E+018
2.926235E+018
2.975275E+018
3.104074E+018
3.045942E+018
3.084591E+018
3.174249E+018
2.948486E+018
2.934544E+018
2.969613E+018
2.892945E+018
2.973141E+018
2.830704E+018
2.832842E+018
2.80182E+018
2.828031E+018
2.727917E+018
2.708114E+018
2.682207E+018
2.465806E+018
2.48682E+018
2.497427E+018
2.276306E+018
2.274064E+018
2.145348E+018
2.182106E+018
2.135453E+018
2.01548E+018
1.94523E+018
1.876197E+018
1.626748E+018
1.651415E+018
1.556976E+018
1.354177E+018
1.243218E+018
1.217681E+018
1.064484E+018
1.008173E+018
8.759406E+017
7.010839E+017
6.005503E+017
5.044792E+017
4.26311E+017
2.972728E+017
2.06836E+017
2.188463E+017
3.458777E+017
4.584626E+017
6.16909E+017
7.178171E+017
8.323049E+017
1.041869E+018
1.044289E+018
1.235883E+018
1.293003E+018
1.357811E+018
1.481573E+018
1.509427E+018
1.646638E+018
1.669824E+018
1.911934E+018
1.971396E+018
1.976172E+018
2.050113E+018
2.230712E+018
2.245049E+018
2.383874E+018
2.471648E+018
2.467168E+018
2.552888E+018
2.664156E+018
2.698912E+018
2.737807E+018
2.917631E+018
2.973484E+018
2.874441E+018
2.859741E+018
2.98042E+018
3.000515E+018
3.003238E+018
3.081218E+018
3.096046E+018
3.099674E+018
3.157375E+018
3.100491E+018
3.163132E+018
3.124822E+018
3.22102E+018
3.164064E+018
3.019285E+018
3.019784E+018
3.049569E+018
2.992298E+018
2.997424E+018
2.985013E+018
2.994227E+018
2.776304E+018
2.726253E+018
2.742995E+018
2.714779E+018
2.66543E+018
2.455795E+018
2.331528E+018
2.352628E+018
2.325457E+018
2.208628E+018
2.188851E+018
2.051295E+018
2.017981E+018
1.910717E+018
1.81531E+018
1.637453E+018
1.622796E+018
1.49407E+018
1.363293E+018
1.22727E+018
1.158253E+018
9.612991E+017
8.836745E+017
7.791335E+017
6.091005E+017
5.388176E+017
4.995366E+017
3.578101E+017
1.825235E+017
1.78521E+017
2.937426E+017
4.915336E+017
5.949636E+017
7.36331E+017
9.668722E+017
9.503845E+017
1.121697E+018
1.186592E+018
1.290376E+018
1.424448E+018
1.592705E+018
1.607427E+018
1.698588E+018
1.866952E+018
2.001241E+018
2.050582E+018
2.1339E+018
2.101394E+018
2.321982E+018
2.334642E+018
2.297154E+018
2.583607E+018
2.751313E+018
2.528431E+018
2.822391E+018
2.859609E+018
2.862502E+018
2.838746E+018
3.027367E+018
2.987885E+018
3.143675E+018
3.183423E+018
3.103565E+018
3.108344E+018
3.042353E+018
3.217627E+018
3.121847E+018
3.153341E+018
3.107981E+018
3.168606E+018
3.151303E+018
3.223663E+018
3.227636E+018
3.019259E+018
3.159144E+018
3.109378E+018
2.998244E+018
3.072861E+018
3.011717E+018
3.025463E+018
2.776902E+018
2.948207E+018
2.652386E+018
2.712673E+018
2.592405E+018
2.612985E+018
2.576953E+018
2.375026E+018
2.398906E+018
2.463553E+018
2.185568E+018
2.094714E+018
2.04768E+018
1.888081E+018
1.91557E+018
1.781371E+018
1.569425E+018
1.444365E+018
1.38953E+018
1.2302E+018
1.168897E+018
9.360465E+017
9.412843E+017
8.678173E+017
7.304763E+017
6.643617E+017
4.826972E+017
3.522707E+017
1.912418E+017
1.885067E+017
3.497506E+017
4.447087E+017
6.490756E+017
6.944577E+017
8.762092E+017
9.941812E+017
1.0843E+018
1.329581E+018
1.340644E+018
1.52114E+018
1.63548E+018
1.710084E+018
1.816289E+018
1.938075E+018
2.097737E+018
2.052451E+018
2.098523E+018
2.267037E+018
2.415189E+018
2.44286E+018
2.513787E+018
2.599295E+018
2.690438E+018
2.75694E+018
2.822166E+018
2.771412E+018
2.879049E+018
2.985921E+018
3.044388E+018
3.14985E+018
3.248154E+018
3.187795E+018
3.215649E+018
3.168317E+018
3.12036E+018
3.216511E+018
3.171023E+018
3.297616E+018
3.229132E+018
3.277106E+018
3.312861E+018
3.277407E+018
3.374625E+018
3.261028E+018
3.301268E+018
3.298797E+018
3.225702E+018
3.133824E+018
3.111105E+018
3.126415E+018
2.961028E+018
2.977044E+018
2.819586E+018
2.806834E+018
2.65198E+018
2.652565E+018
2.522805E+018
2.502847E+018
2.464765E+018
2.413687E+018
2.305928E+018
2.151866E+018
2.069547E+018
1.864919E+018
1.871889E+018
1.81637E+018
1.697425E+018
1.536689E+018
1.387111E+018
1.322291E+018
1.214531E+018
1.050156E+018
9.196921E+017
8.151112E+017
6.819958E+017
6.248733E+017
5.130105E+017
3.572787E+017
1.804836E+017
1.874638E+017
3.382064E+017
4.821012E+017
6.34975E+017
7.65954E+017
8.058253E+017
1.017643E+018
1.136646E+018
1.31622E+018
1.401493E+018
1.574256E+018
1.649523E+018
1.752612E+018
1.918283E+018
1.973748E+018
2.106638E+018
2.22931E+018
2.205166E+018
2.279045E+018
2.495119E+018
2.476544E+018
2.613162E+018
2.585156E+018
2.631193E+018
2.801055E+018
2.939615E+018
2.88265E+018
3.111879E+018
3.273678E+018
3.155794E+018
3.246337E+018
3.160592E+018
3.14718E+018
3.247937E+018
3.259353E+018
3.206643E+018
3.406407E+018
3.380842E+018
3.310213E+018
3.320748E+018
3.280795E+018
3.357328E+018
3.387155E+018
3.287898E+018
3.433249E+018
3.356774E+018
3.314994E+018
3.413545E+018
3.417764E+018
3.307708E+018
3.020663E+018
3.032927E+018
3.185601E+018
3.079644E+018
3.037631E+018
2.672707E+018
2.762091E+018
2.687679E+018
2.566085E+018
2.499794E+018
2.469966E+018
2.366543E+018
2.260876E+018
2.106023E+018
2.0424E+018
1.931983E+018
1.876518E+018
1.681251E+018
1.512886E+018
1.433714E+018
1.378488E+018
1.141267E+018
1.076222E+018
1.04211E+018
8.581475E+017
7.295615E+017
6.377825E+017
5.231838E+017
3.218189E+017
2.067776E+017
2.024992E+017
3.722726E+017
5.649638E+017
6.607065E+017
7.357716E+017
8.844698E+017
1.048158E+018
1.244556E+018
1.297277E+018
1.493047E+018
1.593808E+018
1.693725E+018
1.822798E+018
1.921043E+018
1.960057E+018
2.014546E+018
2.101415E+018
2.241539E+018
2.319337E+018
2.51525E+018
2.573137E+018
2.88087E+018
2.763131E+018
2.772156E+018
2.859204E+018
3.015303E+018
3.099389E+018
3.126996E+018
3.204448E+018
3.305576E+018
3.263492E+018
3.170221E+018
3.191929E+018
3.290692E+018
3.315161E+018
3.390441E+018
3.461071E+018
3.481428E+018
3.39558E+018
3.384161E+018
3.456763E+018
3.427307E+018
3.503385E+018
3.469392E+018
3.321193E+018
3.599384E+018
3.416386E+018
3.454092E+018
3.357766E+018
3.333344E+018
3.164209E+018
3.269197E+018
3.17888E+018
3.082331E+018
2.92265E+018
3.085993E+018
2.893108E+018
2.719522E+018
2.694852E+018
2.567112E+018
2.485807E+018
2.412832E+018
2.352507E+018
2.199004E+018
2.051253E+018
2.018421E+018
1.954741E+018
1.706684E+018
1.683185E+018
1.413322E+018
1.404077E+018
1.242547E+018
1.147463E+018
1.096483E+018
9.225997E+017
7.392836E+017
6.596775E+017
4.62662E+017
3.390725E+017
2.053245E+017
2.317508E+017
3.898509E+017
5.32985E+017
7.115156E+017
8.04951E+017
9.936649E+017
1.061019E+018
1.293547E+018
1.356024E+018
1.504318E+018
1.585444E+018
1.693618E+018
1.775583E+018
1.913478E+018
2.065745E+018
2.141436E+018
2.195783E+018
2.335455E+018
2.354691E+018
2.593184E+018
2.715784E+018
2.796033E+018
2.959803E+018
2.849404E+018
2.997869E+018
3.118823E+018
3.257078E+018
3.156519E+018
3.329608E+018
3.420207E+018
3.279156E+018
3.349371E+018
3.245975E+018
3.402178E+018
3.500667E+018
3.554271E+018
3.515394E+018
3.442625E+018
3.544587E+018
3.591201E+018
3.59832E+018
3.545257E+018
3.717803E+018
3.621442E+018
3.586532E+018
3.593569E+018
3.589468E+018
3.520786E+018
3.300109E+018
3.45064E+018
3.29477E+018
3.214534E+018
3.202766E+018
3.114366E+018
3.075925E+018
3.029174E+018
3.050234E+018
2.85659E+018
2.732002E+018
2.5634E+018
2.591735E+018
2.507607E+018
2.45188E+018
2.231704E+018
2.128031E+018
2.065246E+018
1.917703E+018
1.789917E+018
1.725534E+018
1.579201E+018
1.458291E+018
1.408736E+018
1.234932E+018
9.581758E+017
9.876871E+017
8.172688E+017
6.528237E+017
5.148534E+017
3.779364E+017
2.35783E+017
2.265363E+017
4.109344E+017
5.04821E+017
6.774924E+017
8.573229E+017
9.525209E+017
1.084967E+018
1.252251E+018
1.372947E+018
1.561043E+018
1.641057E+018
1.720417E+018
1.803386E+018
1.884568E+018
2.006901E+018
2.269405E+018
2.280347E+018
2.35458E+018
2.474171E+018
2.508001E+018