/*--------------------------------*- C++ -*----------------------------------*\
| =========                 |                                                 |
| \\      /  F ield         | OpenFOAM: The Open Source CFD Toolbox           |
|  \\    /   O peration     | Version:  v1806                                 |
|   \\  /    A nd           | Web:      www.OpenFOAM.com                      |
|    \\/     M anipulation  |                                                 |
\*---------------------------------------------------------------------------*/
FoamFile
{
    version     2.0;
    format      ascii;
    class       volScalarField;
    object      dnp3_s;
}
// * * * * * * * * * * * * * * * * * * * * * * * * * * * * * * * * * * * * * //

dimensions      [0 -3 -1 0 0 0 0];

internalField   nonuniform List<scalar> 
6400
(
103956463117236
168787994043986
228348110577805
289038295283804
366986154237309
427561731755448
471808882495210
542097161060123
595281091209936
661773910112051
698391422881670
788409690210566
814908730538560
858330399776579
933666557093238
973877160076822
1.05800503094863E+015
1062578993491119
1143495798108491
1.15926203016805E+015
1244799259701364
1264762592829817
1265531803234818
1.30255715239367E+015
1366664902791684
1.36375326072175E+015
1.42044251882455E+015
1.4310462649445E+015
1.47666715319279E+015
1508566153813612
1.61715904555321E+015
1.54362975831541E+015
1.57840942609053E+015
1.60248209802691E+015
1635759482393605
1.58472314639467E+015
1663399432114251
1619843538241802
1629781323675542
1.59840889662056E+015
1688597525985464
1.61504758880391E+015
1669960951743489
1.59819723469704E+015
1.59144470308803E+015
1.5801388588803E+015
1.60609067569869E+015
1592136476203941
1.52313468913518E+015
1.56971579976824E+015
1.4975235963888E+015
1553009995267673
1.45684320718471E+015
1433839169837827
1.39117122354699E+015
1.36687656471521E+015
1.32251016055024E+015
1.30612959266387E+015
1.2377524663938E+015
1.20188351408543E+015
1151368589166389
1113109405867975
1.06636309568485E+015
1.01730399180078E+015
983453571494790
909335760859878
895257661702575
795523595835342
793628963495507
715556688630858
662455358256079
603097094922498
527409888561946
483189066500476
415117559398030
388608710346751
300029227849223
236643192985563
183294063285683
104626037543603
157771249048868
247126653183119
364199960575704
476840241291949
560217486708137
665619962137057
732752929295683
837649481102521
965188696240467
998672580044746
1.08979045687878E+015
1.18420199974228E+015
1.31027506887338E+015
1328168245140048
1437762659151927
1.55772334493053E+015
1.61357628031112E+015
1.69992402013696E+015
1.73248381895805E+015
1.81882123381201E+015
1.85924866120505E+015
1.96933351138119E+015
1.97088225716308E+015
2.0217998559854E+015
2.12635052123429E+015
2150051494183014
2.21314223485093E+015
2.22353948153329E+015
2.35515189807759E+015
2324502219054153
2386018401510489
2.35292686663762E+015
2.50821960618688E+015
2413839038239021
2466702894260578
2.47209252958153E+015
2512174070416621
2.50814216889779E+015
2.56327751873277E+015
2.53926163414173E+015
2.57444913830608E+015
2.58388100011774E+015
2.5590442802623E+015
2.50761043284601E+015
2.4606318107956E+015
2445051428229874
2489763718952795
2401996295493567
2.414097162536E+015
2.38654497507633E+015
2362229666300788
2.33351075701876E+015
2.30119359503684E+015
2.22122668783235E+015
2151016879053720
2.08973817095061E+015
2.03803071177952E+015
1.97622026762463E+015
1.95434681469852E+015
1853002053218131
1.77683989815114E+015
1.70867443380459E+015
1632723940661117
1.53466252023832E+015
1518163215175338
1448769079175165
1.34684611926954E+015
1.25840241015222E+015
1166825072069567
1131673705306795
1.02190376677297E+015
917203389431837
805373619008109
728850089925341
656435899650499
548441856279898
458193342078096
353136753207130
294731484778000
153080098075549
214774386296801
348201932897461
469392839075475
636333179401676
718705805054017
849941360124721
969649084092286
1.10290317116538E+015
1.24893441093899E+015
1.31433794530785E+015
1.42113429194046E+015
1539711431487250
1.70037831889964E+015
1759416508104968
1.94631914906243E+015
2057787545470390
2.12227731982794E+015
2212584686369452
2320155405893006
2439992192009061
2.46382222710628E+015
2626265009681896
2604551593819916
2689262825602898
2812496527467213
2.86589728202649E+015
2950613676295411
3.0979716749555E+015
3.0886379003767E+015
3.08125038299712E+015
3139720698749089
3237807931601587
3249655836832981
3272453374742278
3.30378450190974E+015
3348832354218737
3374680921318340
3.3919081368988E+015
3292236020862845
3.33655596265436E+015
3.31635515517268E+015
3369549410294373
3.36710755444494E+015
3.372915351127E+015
3.29468303919822E+015
3.24422490162452E+015
3254018137451948
3.20293533907955E+015
3151067842844342
3.15634390347462E+015
3142332916634529
3.0692424407016E+015
3.03829333749367E+015
2.94728903535031E+015
2856357008010099
2.79320431751091E+015
2665019791630512
2669098155522800
2.60230074995025E+015
2488018798705208
2335374414442962
2309427760110506
2207029851498437
2040684229552478
1982193263856751
1.92059448162538E+015
1.78327235563188E+015
1.67652247137273E+015
1.5375018875051E+015
1.49225269824446E+015
1.37949884283754E+015
1.26744708551841E+015
1.07802515142242E+015
1.034381495289E+015
864866106976119
733470514841288
636632603586173
477364749863413
365890158472330
216672116128200
260635330141284
421635714145375
615414786374396
784537825755862
935494077115858
1.0784536377554E+015
1.23077278540346E+015
1.36812072382665E+015
1.57871917524691E+015
1.69722403999054E+015
1799967835160567
1965430672010853
2057131909756060
2277466809658410
2.38405665685344E+015
2.52397551327456E+015
2646465817163571
2749885897991682
2.93010311965736E+015
2991386990246413
3.17325104492682E+015
3250874183514728
3282886758826220
3422077704729856
3.50371725737877E+015
3.64161241931157E+015
3.58353961497695E+015
3.70828076273563E+015
3.8125165163422E+015
3.82236653951496E+015
3.97967781106661E+015
3.99888742124788E+015
3.98904256056106E+015
4.10271017597928E+015
4095622082784206
4140866109558906
4.18892369117069E+015
4.20231517969803E+015
4149817860178181
4.14739665427251E+015
4.18315203189021E+015
4218664772668756
4188551992183039
4.08662903227741E+015
4097542527553739
4020864123892783
3.98005983502614E+015
4012087897795454
3.96324045583491E+015
3.91160010898104E+015
3869221261902820
3820120858131235
3.74941028821646E+015
3.64732729124671E+015
3.56749977116259E+015
3482014166488672
3.40565067447003E+015
3.28832285652062E+015
3.17931180341992E+015
3.10953048097428E+015
2954583627982967
2845675824601056
2702499439552046
2.58785095180529E+015
2513924153150147
2352477730360874
2.22709643434568E+015
2142049640976626
1.9585026158799E+015
1836172349055018
1.70915970748291E+015
1.56056271219732E+015
1.3891785039743E+015
1.24574399462831E+015
1.10057489000661E+015
912335165190789
779370177330317
606617910333309
426409464893728
265439023308086
306436905397461
560403336201963
708122708877826
917239526833414
1.09246462459549E+015
1.30722403968307E+015
1478122974227760
1.66131378779465E+015
1.83745264556804E+015
2.02759216520964E+015
2.21321967214002E+015
2.31996439391324E+015
2.46818969021118E+015
2.70955139534555E+015
2910687010038505
3048706071633849
3.19779350308371E+015
3343669868279132
3.42250619106284E+015
3586120857946750
3684073866164819
3.83053359227142E+015
3952585084855565
4074249390994240
4.22326454764094E+015
4.32898193471218E+015
4391566751758015
4470769611043437
4533431865378365
4659783708750202
4665385005994673
4689328615782563
4803435042505657
4753317629003969
4857408833004228
4878012314389193
4920318886664258
5053867235435904
5031353634253287
5077542395954934
5016857373734875
5046830767100223
5035824347076984
4944840694877382
4798706205384978
4864021977492863
4859979751002152
4752584556000545
4807059107635259
4673918595252841
4652003842439217
4.46722298320293E+015
4453051959298712
4504408369425905
4346890598436671
4.21810722418728E+015
4.11782593481045E+015
3955496726925502
3813884575116192
3731042163243347
3590348933931287
3.3568961572564E+015
3.23048236405329E+015
3.08967039756462E+015
2.97100549575685E+015
2831959099459525
2697538290564085
2.60202713819545E+015
2340000001844848
2.20892448383827E+015
2.00864067932535E+015
1.81622450338438E+015
1689944934815701
1447814019276338
1.24921318517973E+015
1.09197418843123E+015
914709908723007
734724998924612
500587676614133
305548957815849
369557588483826
628837249817370
858294262375002
1.09844278331356E+015
1.26194903799273E+015
1.49240757282265E+015
1.70676947649287E+015
1947253559017503
2.14214772820948E+015
2345467074454890
2535276194996354
2.70530266941725E+015
2910681847552565
3169978028841115
3371846716537497
3.45609332458591E+015
3704930309360824
3.81965107191073E+015
3939384608307994
4198840826660672
4370462509236908
4.47722271846794E+015
4565568340352407
4738965918091866
4855132176704863
5012205973903291
5082204120758397
5190311738819670
5289276594281900
5397637174154215
5363977765827987
5468724605542578
5595308760781696
5646727120740166
5700933223106019
5742129860904069
5793031972268576
5882807602758310
5965355752932599
5796387588129319
5847909197806579
5853433057761957
5766600044257799
5777647764168552
5732940635931571
5737277124120840
5649101864272384
5585706536934032
5549620760216192
5459070756835516
5396088428372333
5284372232639275
5143224704564530
5110324181671427
5000740092631428
4895322129744689
4787224836655296
4596321269094635
4.44169449023158E+015
4.35961096379186E+015
4218840297190703
3982351978783328
3848364818706815
3.60234655125493E+015
3465850423011768
3323226423958295
3.18201178356633E+015
2.93918909491106E+015
2.73375312943042E+015
2569369252141507
2.34963320060815E+015
2.12523026178539E+015
1918957973582527
1.68853557615419E+015
1463843538118812
1.29066278478882E+015
1.07318790209701E+015
856874578741610
582824012637668
365749222606179
411049004229027
686837779348834
974878682349106
1.23841842708001E+015
1.43135601410088E+015
1.68188113177804E+015
1927393475607842
2193158251778718
2.41172758148972E+015
2689644849562429
2.87950043247735E+015
3098302074055636
3340458802024698
3.56096406396305E+015
3733819580678855
3.98792230111216E+015
4111145678004599
4.37031279714466E+015
4619485343505644
4792702234237216
4910788937619746
5116013241176872
5191137736570006
5296607324316141
5475332587545273
5691279374398957
5910168778238218
5974235228748718
5905987164627138
6116874715260011
6212380705142706
6281661266452208
6334215373317390
6371849895817111
6484805088175672
6526053350833118
6681340927896444
6665543720921250
6573961220352656
6627083200671191
6643035282224573
6672151702923945
6631832687735630
6636324050503085
6521820112362643
6486147334519970
6490483822709237
6439271962188355
6315630423934810
6229778282759175
6079498317057268
5995504670819892
6057402877235759
5758804690488993
5616939576868643
5655864720853267
5503055137040953
5251280697766407
5009795092969496
4986403869177143
4828726061123783
4615747703685370
4.34427838055123E+015
4.13444913953598E+015
3.96000357715078E+015
3.73979773939692E+015
3.69076444794255E+015
3.42467959764342E+015
3.12401641652081E+015
2967412405542886
2658169172788656
2.43357005950019E+015
2.19275557787543E+015
1.94760977054734E+015
1.65244979943635E+015
1.4561772464985E+015
1.17561678562471E+015
992394997142186
712567609271826
440398769292870
463036270138039
794568535936515
1.11084307454049E+015
1.38744907118453E+015
1.62696260635252E+015
1.93252498663181E+015
2.20787133670659E+015
2.41915123627087E+015
2753984911827728
3015728111451651
3.23089020044252E+015
3.49048064342962E+015
3804855387207822
3950458140648447
4.19734370573819E+015
4490526444734306
4718352111735023
4942259451907580
5102735327340207
5349109806321924
5479101202281185
5656122845150247
5883117351914688
6012644124139381
6174436433486609
6315940173091186
6571379977382852
6528892718099900
6828058778300022
6965329279434124
6924648890230034
6998265939728806
7065481506662465
7147771532539772
7281273418937962
7252002123660400
7381425646166303
7447298966755666
7483487993192300
7477602759221147
7495155211415806
7429849764279800
7390356746841820
7532015361024587
7334756773272274
7183341060663651
7268522078667138
7158199754137775
7105697272131989
6897907213062880
6870494412723578
6833014764802042
6574580718665407
6455378918319922
6313875178715344
6224822296257155
6082027935167675
6006758890168231
5777957513324930
5492007417130197
5315966646589660
5076917735156242
4859411877548795
4583895165438006
4470072675441591
4239195979250566
4.02583559785262E+015
3831354427535816
3602862799848890
3.2910434866108E+015
3.00888781758167E+015
2.72033582847338E+015
2492288174577262
2159545305825948
1.91451823567447E+015
1.61520762586804E+015
1328808393396559
1.11406962825274E+015
809834006859928
475696750656327
501919597986552
859677808606816
1248810511276437
1542457874007120
1.86783387532262E+015
2.09050738135561E+015
2.44455066709373E+015
2.7567055419179E+015
3.00653372399321E+015
3.31404752395768E+015
3649856909357116
3808737576634405
4.17467522997738E+015
4511997223757124
4789718317364125
4844734930022496
5160457082630933
5566656963816889
5698455229855009
5897933686561354
6135149915486212
6291624864315646
6404786556111792
6723002189429058
6816133435779535
6995065198446250
7235172419497288
7292527638286302
7414465556179777
7565365020194436
7734178310419527
7796179766554185
8002575954419600
8018682910551168
8018941034848151
8103192805382505
8198079296952450
8289816672099236
8348823886388921
8312221861077119
8273658091108268
8280679071986135
8163593890875886
8135664841942623
8116357144528498
7969019795812166
7933760016844663
7822147070830399
7838615400977740
7740321668687656
7573315248541428
7419060168666025
7262378720399007
7189794168088158
7022013375050989
6892383353107504
6779634660186525
6594559539251679
6298645845193509
6147023633147305
5818431403091433
5730824016696333
5492988289458723
5209051562780437
4843062284578065
4631214511560427
4475498448164116
4164277983295017
3934020785416744
3.60707538837561E+015
3.38160381496335E+015
3.10814693474246E+015
2751207494392221
2.40765954256931E+015
2.1182970431685E+015
1.82215619972899E+015
1.49465841669232E+015
1217505196538671
849388974129183
533558409316016
564440400206734
910915481557398
1.32736805981941E+015
1.67775630551229E+015
2.03711178928227E+015
2329189756287315
2.67776080692946E+015
2967035544069295
3320051495105438
3659851482136192
4.0269919947031E+015
4279241382684085
4496112254520958
4907753395887258
5196196972790818
5471563972809361
5746569598812129
6010372630325954
6263386066226006
6503080288401875
6791973001582183
6905857441409872
7130270705204510
7393402613546186
7594636315471998
7838976774993511
7956733079275906
8118473763763737
8278459203032102
8385838910575891
8536893249168738
8638852346475940
8758931769431159
8782834079331532
8938328155832439
8885928923545446
9.01875968677149E+015
9.00874446404865E+015
8989901390369095
9.06800980263532E+015
9.15577206360861E+015
9.06377656416485E+015
9.05210934594134E+015
8954951360557968
8934662790815319
8808181885294993
8743031312737175
8638800721616545
8589602230612107
8470348805407230
8373655443758422
8230706208090754
8087498848126108
7945943483662132
7692207299730535
7674964596692254
7393712362702564
7079575093277586
6961457414979421
6705965985828359
6423526380072559
6106756242818385
5835932230426695
5603671988003858
5392629562792798
5194854726446522
4885792180700178
4616532401548190
4193218879472442
3.98231067889581E+015
3.68110543674955E+015
3342627046119332
2908322591478165
2.62528929983931E+015
2.28950572686957E+015
1.9975155221255E+015
1.64102005556606E+015
1.29445204946849E+015
960103647589956
555757098856318
638470448580673
1.00100086120351E+015
1.4391410428978E+015
1.80613184337246E+015
2.1266912453063E+015
2535632406526187
2912091206214077
3226006488743650
3650811969255943
3.99274406297975E+015
4464951489389502
4661585416343125
4860330800046045
5260005299004340
5614822957633405
5885285596009321
6209231588719547
6483979090425337
6790011256925133
7149836526915614
7372184796334409
7637330074192533
7777491567452814
7836860155758274
8172421741832611
8441955132739398
8693161698560588
8760067516337872
9.040855126593E+015
9.08798862322159E+015
9.20068569128318E+015
9.26903700512355E+015
9.39056192414186E+015
9.55447085272432E+015
9.70258257433159E+015
9.73355748996922E+015
9.7508001930075E+015
9.90675889324298E+015
9.82374611933413E+015
1.004975975377E+016
9.96989609628435E+015
9.86933087018084E+015
9.9300417048306E+015
9.78435635161494E+015
9.71837978130679E+015
9.50645973348599E+015
9.5587040911948E+015
9.48007943033461E+015
9.33651069635419E+015
9.25623403999333E+015
9.15597856304619E+015
8930687676641823
8748710047270741
8564977172680191
8439735263785368
8287648428004600
7862001462284150
7782808927970607
7529175993757803
7290927267645024
7067288376741326
6650779011133979
6456153291210865
6135872663517757
5873618377785813
5700158850215079
5308171292820855
4928232977609673
4679411480292581
4288678406981682
3.99444252085388E+015
3615247603618003
3225944538912375
2888508970441960
2.54026315641401E+015
2179792575681080
1.74663419291851E+015
1.4250371313108E+015
1.02297240136247E+015
599576279511687
731059633907492
1.10664597347159E+015
1.5207392956592E+015
1.95968998764601E+015
2.35365993964104E+015
2721977499002176
3.14538394582484E+015
3494078896129529
3841694886872845
4.26939652199726E+015
4680645314432145
5039613611756655
5250661199453655
5648069367084463
6017445236063213
6421409760837321
6802091474023809
7064139260318168
7363924818831041
7646983922899595
7884355026402641
8266069236777049
8313254358265043
8627443252549413
8925731690139803
9.11968628689077E+015
9.36789861086699E+015
9.50310411762525E+015
9.56443445058776E+015
9.85528890842511E+015
1.00347885445452E+016
1.01763439090092E+016
1.03784552335447E+016
1.03925488201598E+016
1.04052485355713E+016
1.04854219422133E+016
1.07187663066835E+016
1.07046727200684E+016
1.05579032448054E+016
1.06671414472874E+016
1.06759692982442E+016
1.07703395412201E+016
1.06488662470612E+016
1.05472685237698E+016
1.03952849377078E+016
1.04009636722414E+016
1.02979720777463E+016
1.01315335310534E+016
1.01059792256523E+016
9.95549276051285E+015
9.86525250628855E+015
9.67687339435236E+015
9.45225363112014E+015
9.37078960299317E+015
9.17533788531971E+015
8882728182262892
8708649156379405
8379953676604741
8093384082097256
7926893910544991
7700673776671488
7329078038738706
7041630821621489
6709166727110916
6394822958248354
6046303532465607
5751732084751734
5335325968863179
4966517973337784
4649990472922771
4.27156476609189E+015
3964376202741623
3.49666013909933E+015
3111559337948543
2719917667112274
2.32397564548831E+015
1960892846869940
1533671322937912
1.09472579343704E+015
658459594138824
757672248926157
1.20335482257821E+015
1.66348203188928E+015
2075665234279243
2.517099082003E+015
2954624927870484
3.36195023099127E+015
3.88306704919284E+015
4147954202753984
4591019396034660
5019934215354880
5412195384503901
5790708853595755
6157142105588931
6445312070737694
6904411945346782
7185147930742514
7489011853147675
7814609841358575
8124513872313075
8447220868397796
8929810054032092
9.06078232231987E+015
9.3324839573213E+015
9.7221483960427E+015
9.87573235274595E+015
1.00965835012423E+016
1.02421656047391E+016
1.04376173224126E+016
1.0633843412977E+016
1.08058058196252E+016
1.08454537116414E+016
1.09795750963523E+016
1.13133298123478E+016
1.12228830586859E+016
1.14026924439624E+016
1.14071321818704E+016
1.13802872549845E+016
1.14543173033584E+016
1.14318088646617E+016
1.15603547645579E+016
1.14104877977312E+016
1.15028446711907E+016
1.1410849171747E+016
1.14178185277654E+016
1.12714104265182E+016
1.11462717673422E+016
1.10815858185189E+016
1.09394625806016E+016
1.08142206717068E+016
1.06736978044307E+016
1.04565120209515E+016
1.03125819129553E+016
1.00172360923505E+016
9.83216097141568E+015
9.61724668174992E+015
9.36557549219417E+015
9.06057582288229E+015
8758105771680823
8474685293596496
8201073538797420
8040726725513283
7567223515132694
7313797080357475
6894654846920930
6543709052746568
6150895497602008
5670681055499934
5429128338385806
4980312135768408
4572563508800573
4209289698202433
3.76794877522558E+015
3.27481263081668E+015
2934135021176191
2.4473229220433E+015
2.07871110098361E+015
1.64167052879445E+015
1200401880620759
686476405333062
801697929019110
1.32564895200152E+015
1.78372665439457E+015
2.21620358901312E+015
2732297308395447
3191541732610846
3583204053390873
4041834141779459
4.37482997234181E+015
4942414326485768
5401044414874354
5787404862594407
6255384213019617
6646494147804107
6919692903728015
7280705545484605
7839234899290492
8052652068033771
8546134099000632
8781646707565421
9.23780396518894E+015
9.36758886171061E+015
9.68229400458895E+015
9.94583891180579E+015
1.03245072554758E+016
1.07175789349174E+016
1.07944999754175E+016
1.10601615018696E+016
1.10752875856726E+016
1.13989238292265E+016
1.14610801599393E+016
1.16879197921256E+016
1.19026792072131E+016
1.20416017038479E+016
1.19556979378129E+016
1.2194772661676E+016
1.2267512088565E+016
1.22664279665177E+016
1.23714329305293E+016
1.23246608079165E+016
1.24180501785639E+016
1.23644635745108E+016
1.22930147691067E+016
1.21935336650505E+016
1.20423760767389E+016
1.1915172423187E+016
1.18799126442195E+016
1.17807412893197E+016
1.17265351869538E+016
1.15470355508337E+016
1.13847786177519E+016
1.1279463904584E+016
1.09256787431429E+016
1.075924019645E+016
1.05327103134201E+016
1.02781481317382E+016
9.98858429538572E+015
9.80856841067169E+015
9.39107817273582E+015
9.0722946659652E+015
8831309822304424
8514488060190854
8131638102909733
7786112918971954
7328458540425956
6917524659633380
6559661134299947
6206547096030952
5830872994205882
5393249061105550
4839226557524939
4.50170322679355E+015
4.0596189058414E+015
3.55017963083522E+015
3053259384232581
2687352705805244
2.15285472404822E+015
1.72617009865391E+015
1.24886729862177E+015
749623933346312
789509299715702
1.37541531645931E+015
1.8693309962451E+015
2.42389039836343E+015
2.90163200970044E+015
3.40264610765318E+015
3.89808472079115E+015
4328233374250937
4718987097505595
5261089421051656
5610434844584741
6153838114587583
6669983458829312
7070953741758446
7423499906574085
7817191084328377
8268495605168663
8577573638372827
8921963075403891
9.34864253831226E+015
9.78156860920755E+015
9.98347343430551E+015
1.02851174877566E+016
1.05886716610054E+016
1.10288252122162E+016
1.11570097380966E+016
1.14804911070722E+016
1.18291654074332E+016
1.19367516144145E+016
1.21315838337752E+016
1.2441126490714E+016
1.2490015232562E+016
1.26956886723959E+016
1.28290356842159E+016
1.29721397944618E+016
1.29129260807345E+016
1.30936130886207E+016
1.30341412505964E+016
1.32496234137155E+016
1.31724442489184E+016
1.31401270869365E+016
1.31194771431781E+016
1.31764709879513E+016
1.29173658186425E+016
1.29320789035704E+016
1.27675504766752E+016
1.26473161791418E+016
1.2527546505343E+016
1.24623443079257E+016
1.23309074159034E+016
1.21776848332159E+016
1.19296790086773E+016
1.17045946217105E+016
1.15132728927887E+016
1.12836455181951E+016
1.09006406863358E+016
1.05224885912597E+016
1.03102587942825E+016
9.97655570314644E+015
9.67940301246277E+015
9.36490436902202E+015
8975188305441221
8597862208115475
8181507717086316
7771399834044079
7366712561238428
7003893049402975
6612008741727545
6219969559473926
5623547558871338
5289792842875860
4803047856060186
4253661264853341
3835277916849916
3.352998480372E+015
2.89984062707939E+015
2.33604553761511E+015
1.87142696553658E+015
1.35341280138472E+015
806070554609956
841588457874439
1.46017301061575E+015
1.97979787038077E+015
2508415780652588
3008712293059728
3.60147925361708E+015
4.13666900849001E+015
4644311738389206
5020305914342529
5495621157287921
6027925082520612
6528789468381110
6963419159636470
7447608715912042
7875888549461689
8396835005627249
8741121192939521
9.08370375989172E+015
9.52571580604072E+015
9.84522206084288E+015
1.03499066862987E+016
1.05951763932893E+016
1.09833953359476E+016
1.13940194675838E+016
1.17214243258736E+016
1.19242583984407E+016
1.2380518905783E+016
1.22216175885619E+016
1.26003375570914E+016
1.28416837747679E+016
1.29667708090846E+016
1.32882904334032E+016
1.33389860453301E+016
1.36773353738118E+016
1.36264848873067E+016
1.37854894542466E+016
1.39478496370471E+016
1.37671110043016E+016
1.39656085886794E+016
1.39015421381689E+016
1.3823743475059E+016
1.3968034957071E+016
1.39069627484055E+016
1.38090820149905E+016
1.38287510864204E+016
1.36934423299434E+016
1.35097094553528E+016
1.32471454204645E+016
1.32566443945934E+016
1.31162764018955E+016
1.28006936364075E+016
1.27507723973715E+016
1.24209411706901E+016
1.20672076341084E+016
1.18194599338667E+016
1.15747581003294E+016
1.11005321419173E+016
1.10297028348259E+016
1.06135032183749E+016
1.02093321941632E+016
9.90717189211815E+015
9.61693693259354E+015
9.2892739500068E+015
8632812237926602
8352747375703021
7842384015713651
7414878555054944
6961509039838816
6484546963878692
6071135089835108
5509869618481231
5045168446627670
4624756241649981
4.06516857822647E+015
3.5302472726224E+015
3115962938455026
2479505859390799
1.98883738326102E+015
1.4224300759113E+015
830452975702711
844804686614813
1534378583511638
2.11921080317981E+015
2.68497279978709E+015
3.16503752979691E+015
3.7057872820268E+015
4353792842137923
4895595741499488
5387054077978024
5891119205121075
6444124698971584
6985153225442210
7347198364386721
7875527175445916
8389297776155426
8841686419043031
9.27817460523665E+015
9.62359653945564E+015
1.0173194792586E+016
1.04737547239898E+016
1.08561916823958E+016
1.12340340283155E+016
1.16104308781721E+016
1.1998856320268E+016
1.23327659108417E+016
1.25634257826232E+016
1.29864915053739E+016
1.30781256308018E+016
1.33854484187865E+016
1.36809491139695E+016
1.3785282954809E+016
1.40341664019573E+016
1.40810933991483E+016
1.42562049222198E+016
1.44214044722871E+016
1.45400900240386E+016
1.46511350965996E+016
1.45583652242648E+016
1.47401363541983E+016
1.47654841601618E+016
1.4739310356448E+016
1.46331180206703E+016
1.46718366652174E+016
1.46391065043603E+016
1.4457232124708E+016
1.44315229447287E+016
1.4313715015587E+016
1.3976243309715E+016
1.39261155712414E+016
1.37729962382727E+016
1.36313376240899E+016
1.34195724508473E+016
1.3178639232046E+016
1.28508729997404E+016
1.24258455323327E+016
1.21742259676364E+016
1.17362406605203E+016
1.15301542218112E+016
1.12066212279762E+016
1.08803521165931E+016
1.04853186924945E+016
1.00379376609683E+016
9.74470845959877E+015
9.11199418284076E+015
8633483361098751
8300761142291197
7820649949907913
7380031774962610
6886549743995749
6290695616846517
5872018007144536
5388499574041113
4836908601338057
4.34706612295862E+015
3.76922390925267E+015
3.20729763969852E+015
2.66683182419531E+015
2.06216017106124E+015
1510476273611266
890244887855218
950047124979605
1.64416917198922E+015
2.20288953777487E+015
2.84291905710931E+015
3412537430713465
3.98634774290058E+015
4551758690463963
5190621487976046
5659633335589177
6191575886806097
6719233574693144
7257938982490947
7746568276674579
8368802706975193
8883605804872625
9.28633133302123E+015
9.84424118851436E+015
1.0102933358948E+016
1.07263551610147E+016
1.1166715211663E+016
1.14234456374396E+016
1.18186339361164E+016
1.21197101161141E+016
1.26106109041112E+016
1.2940493755652E+016
1.31377007185449E+016
1.3620651278195E+016
1.38152253732587E+016
1.39325686786659E+016
1.44186683547391E+016
1.44892395375335E+016
1.46068925920971E+016
1.49861288092205E+016
1.4982669943641E+016
1.50626884757049E+016
1.5257572319925E+016
1.53757932479419E+016
1.54677371225263E+016
1.54224104959766E+016
1.54683566208391E+016
1.54191065049752E+016
1.55511628953103E+016
1.55084691365898E+016
1.52621669324112E+016
1.52794612603089E+016
1.52170984301585E+016
1.50559772439834E+016
1.48522139239472E+016
1.48336289745646E+016
1.45153100915285E+016
1.42513521854365E+016
1.40289006662989E+016
1.37351552163354E+016
1.34066146111389E+016
1.31419855818748E+016
1.28566549839928E+016
1.25482480739608E+016
1.211408300644E+016
1.18409358753755E+016
1.13177695502559E+016
1.0913701775763E+016
1.06090118556075E+016
1.0031639428122E+016
9.65100933979494E+015
9.16620028520661E+015
8794243173258059
8212637507302135
7733352312669192
7221698331194917
6631832687735630
6289869619096181
5683329146051965
5041296582172965
4533566090012794
3997431600212915
3.41336859094974E+015
2.80204249343951E+015
2.16271507219287E+015
1.57108902102817E+015
939035542470427
1018981799731153
1.66707512210325E+015
2328033359436843
2.96550744823117E+015
3.62604236171772E+015
4.24411066586507E+015
4793048120795171
5357782782700463
5871088759675406
6485837585363593
7165272359875034
7552871804220591
8201073538797420
8743134562455967
9.22025151299428E+015
9.68575287016848E+015
1.02791290040667E+016
1.06667800732717E+016
1.11449811458573E+016
1.16480654006718E+016
1.20260109963103E+016
1.2474631024462E+016
1.29154040739855E+016
1.3142140456453E+016
1.34587557191289E+016
1.39039685065605E+016
1.42077808041063E+016
1.46500509745522E+016
1.4716492168595E+016
1.50983612535475E+016
1.53175087816838E+016
1.55156449920458E+016
1.56908081399766E+016
1.57209570578639E+016
1.58624091726091E+016
1.59190416433666E+016
1.62446396315775E+016
1.62862492682507E+016
1.63178436822011E+016
1.6319134303686E+016
1.64385426034691E+016
1.62658058239299E+016
1.62927540005346E+016
1.60155801304372E+016
1.60304480899433E+016
1.59288503666518E+016
1.57820292665295E+016
1.55696445949741E+016
1.55861645499808E+016
1.5201662597199E+016
1.50269640730028E+016
1.46282136590277E+016
1.45397286500229E+016
1.42546561764379E+016
1.39091309925001E+016
1.36134754227389E+016
1.3159744533507E+016
1.26516010424717E+016
1.22566192432325E+016
1.18823390126111E+016
1.16971606419575E+016
1.10090528910675E+016
1.05750943229843E+016
1.01550228420786E+016
9.64290423686976E+015
9.14947383076229E+015
8698117685062610
8014552921799484
7641150313787841
7153140517916964
6595333912142620
5918532005460379
5305951423866826
4719931832432542
4159368459166451
3.52196664517528E+015
2908301941534407
2290037462921349