/*--------------------------------*- C++ -*----------------------------------*\
| =========                 |                                                 |
| \\      /  F ield         | OpenFOAM: The Open Source CFD Toolbox           |
|  \\    /   O peration     | Version:  v1806                                 |
|   \\  /    A nd           | Web:      www.OpenFOAM.com                      |
|    \\/     M anipulation  |                                                 |
\*---------------------------------------------------------------------------*/
FoamFile
{
    version     2.0;
    format      ascii;
    class       volScalarField;
    object      dnp4_s;
}
// * * * * * * * * * * * * * * * * * * * * * * * * * * * * * * * * * * * * * //

dimensions      [0 -3 -1 0 0 0 0];

internalField   nonuniform List<scalar> 
6400
(
209971693459599
340918687326795
461218456636507
583800742306647
741240149682019
863590951280887
952961529049703
1.09493008432838E+015
1.20235120605122E+015
1.33665367623083E+015
1410613879723366
1.59243314777629E+015
1.6459560188502E+015
1.73365928567323E+015
1.8858235672983E+015
1.96704110924154E+015
2.13696293020791E+015
2.14620143863797E+015
2.30963753472454E+015
2.34148223534011E+015
2514250684750499
2554572707435632
2556126361787865
2630910314903401
2.76039541387004E+015
2754514467194473
2.86901566479092E+015
2890433154988814
2.98257841344977E+015
3.04700814662056E+015
3266344517756271
3117829759777383
3188077876361232
3236699958538832
3.30391375689114E+015
3200830354702044
3.35974104146735E+015
3271766667173460
3.29183904722748E+015
3228472889519290
3.410636255516E+015
3.26207978869544E+015
3.37299402590821E+015
3228045373892165
3214406582665852
3191570991851152
3243988578620784
3.21580382886182E+015
3076433734419229
3.17051845401787E+015
3.02470434353716E+015
3136776001106291
2942537925445916
2.89607427582477E+015
2.80989338172272E+015
2760822929497164
2.6712114831677E+015
2.63812594451243E+015
2.50001754253038E+015
2.4275692845484E+015
2325539030611489
2.24826297420613E+015
2.15384458387412E+015
2054754803274991
1.98638358456632E+015
1836680124599820
1808245121790831
1.60680184373185E+015
1.60297505750856E+015
1.44528435436212E+015
1.33803006800596E+015
1.21813800262358E+015
1065264670690103
975947271694417
838456160569091
784913477795392
606000273285868
477972898335620
370218105879408
211324102650771
318667020295485
499147434530785
735612584219602
963123888322765
1.1315295928944E+015
1.34442194799199E+015
1480017392263384
1.69188788074004E+015
1.9494921141086E+015
2.01712300087762E+015
2.20116326474951E+015
2391856088867876
2.64649899447782E+015
2682639705785467
2903998955742205
3146296044217625
3.25910803372641E+015
3433513555172372
3499277971276623
3.67366263830175E+015
3.75531812308253E+015
3977667958028950
3.98079612115425E+015
4083639697503740
4.29481156288241E+015
4.34268288590994E+015
4470113824424298
4.49111422620549E+015
4756945528593591
4695039180343879
4819289819680846
4752451400903575
5066112317477536
4875482056621675
4982256691298626
4993142698974675
5074099560657472
5065955909321270
5177318516581997
5128811133718992
5199882999925837
5218933513358922
5168768204039507
5064881906648251
4969994291847445
4938524970806914
5028835040234362
4851562035923538
4876003417142558
4820353395143449
4771241234076218
4713234662522715
4647960325308094
4.48644283593837E+015
4.34463277425804E+015
4220861786600290
4.1164228470569E+015
3.99157785672612E+015
3.94739776618645E+015
3742701198477152
3588868563185252
3.45118767683032E+015
3297782557165549
3.09971769528189E+015
3066392330787012
2.92622976835268E+015
2.7203653530766E+015
2.54172638420106E+015
2356758098601996
2285759222868074
2.06404544775714E+015
1.85257119327635E+015
1.62669696120876E+015
1.47213442118762E+015
1325871940658954
1.10774512593169E+015
925460804294137
713267072294533
595299869955254
309191814188947
433802192285324
703299701856281
948081594574233
1285268383292543
1.4516449527169E+015
1.71671506874452E+015
1.95850122390947E+015
2.22764837921039E+015
2.52260288029505E+015
2.65470520907653E+015
2.87041291098689E+015
3.10991550707037E+015
3434431149689127
3.55367672802561E+015
3.93118345398697E+015
4156327781325324
4.28658449386287E+015
4.46898768569919E+015
4686259469172200
4928306304597596
4976438307885565
5304540910888001
5260684063871276
5431784159614840
5680692099495062
5788551164055452
5959661687009433
6257295981171433
6238443584736284
6223522246628597
6341620831819138
6539737829754886
6563668277663441
6609714838867877
6672997578892723
6763985416997319
6816194459558597
6850990060722366
6649671909188392
6739189510624097
6698387836259751
6805829812403433
6800897741875875
6812628353595755
6654614406926369
6552698852304052
6572479270466374
6469302023383520
6364539840317181
6375196449364039
6346897000290480
6199268555197094
6136757428743156
5952946563500453
5769281679203596
5641725614164228
5382817979493457
5391055475723417
5256137800129172
5025310643113189
4716998885483494
4664591725924280
4.45776800728978E+015
4.12178243321158E+015
4003642139179368
3879224664475718
3601860867365670
3386247010349069
3105452661011608
3014058161700722
2.78631745896837E+015
2559994856852821
2177399652207637
2.08924801533665E+015
1.746860134062E+015
1.48146677451144E+015
1.28587316149677E+015
964183292901200
739026452910347
437635234834860
526432316030704
851621556442442
1.24301732668014E+015
1584612739963042
1889514799786159
2.1782651106723E+015
2.48591995404569E+015
2763335887207823
3188703508986293
3.42806012412393E+015
3635582465856418
3.96978498695319E+015
4155003525602280
4600036866228478
4815327479722131
5097936163672267
5345342585252347
5554230891549550
5918234380020026
6042015794888199
6409345563481911
6566129099322012
6630788231121990
6911926678403236
7076822583948284
7355343801414694
7238048111426312
7490000796748496
7700536602291692
7720431719768608
8038169675615878
8076969325580032
8057084635313533
8286670954289813
8272354394386350
8363738466486819
8460805368264918
8487853552088357
8381819249351060
8376928887665172
8449147747017962
8520876527481121
8460054609114846
8254190193838767
8276233316661724
8121357960328057
8038941289186786
8103631702618016
8004969437646013
7900666051838051
7815069081519390
7715895883236921
7573074382146082
7366886723347056
7205650768658609
7032986591352396
6878747294854206
6641768083691797
6421587108512258
6280642505296598
5967680211820622
5747707780849434
5458519527125748
5226952038170111
5077634384989062
4751544233597238
4.49829857418326E+015
4326520709762550
3955791670572676
3.70870849251554E+015
3452167834609585
3.15203100994734E+015
2805868478501503
2.51615886425693E+015
2.22294570731202E+015
1.84273833385249E+015
1.57417510233495E+015
1225249360128429
861263597915663
536134835324347
618942526856281
1.13190497246944E+015
1.43026917136068E+015
1.85264418374927E+015
2206564559745863
2640336513120976
2.98551888678756E+015
3.35552844845861E+015
3711294440699127
4095339027592367
4.47027023258056E+015
4685873662386747
4985259727898915
5472763096556286
5879017641639166
6157789112155599
6458916521807519
6753558206579648
6912792136867902
7243261716635147
7441107607100037
7736927566649363
7983447675343941
8229185743257192
8530167171963266
8743695586896332
8870104658789760
9.03007892101767E+015
9.15664440106736E+015
9.41185037603985E+015
9.42316389934303E+015
9.47152530126019E+015
9.70199793312197E+015
9.60077057438722E+015
9.81101441803872E+015
9.85262941481564E+015
9.93808040418846E+015
1.02078219104832E+016
1.01623488458517E+016
1.02556410974586E+016
1.01330692389989E+016
1.01936096226839E+016
1.01713788100734E+016
9.98760965367239E+015
9.69244660837938E+015
9.82437167458375E+015
9.81620716882672E+015
9.59928991050791E+015
9.70931783483517E+015
9.44040007816344E+015
9.39613656994042E+015
9.02291542746073E+015
8994292734864220
9.09802262409921E+015
8779867579835234
8519750388756012
8317201826392753
7989328622019507
7703299813052374
7535974367480008
7251801601967221
6780272719669721
6524941618172212
6240529026819818
6000849168159233
5720002682769683
5448498977914366
5255585157977036
4726341666017727
4.46159479351306E+015
4.0570607381491E+015
3668417751461664
3413357757435014
2.92430073442541E+015
2523165949657607
2.20557397475618E+015
1.84753485064462E+015
1.48400058664293E+015
1.01108905624405E+015
617149046664442
746433943191061
1270128073766085
1733586295200307
2.21863926940953E+015
2.548889877758E+015
3.01437097801325E+015
3447340036186204
3.93307077907257E+015
4326718826760486
4737384081850041
5120761327276550
5464181502382544
5879007214428748
6402734712077108
6810469921039296
6980631567845270
7483233537187428
7714947007088912
7956785298305955
8480836039477264
8827478222602320
9.04311293403976E+015
9.22155378591736E+015
9.57178292942609E+015
9.80641601824452E+015
1.01236743224126E+016
1.02650568684658E+016
1.04834130818222E+016
1.0683302705529E+016
1.09021698521959E+016
1.08341844402727E+016
1.10457525396472E+016
1.13014277390885E+016
1.14052827548485E+016
1.15147684642341E+016
1.15979776033671E+016
1.17007898980853E+016
1.18821190872486E+016
1.20488501818272E+016
1.17075675848568E+016
1.18116311448252E+016
1.18227882599721E+016
1.16474025807468E+016
1.16697168110407E+016
1.15794171688236E+016
1.15881760255745E+016
1.14100792716407E+016
1.12820331277117E+016
1.12091469268921E+016
1.10262536561662E+016
1.08990416890706E+016
1.06733968556322E+016
1.03883064956027E+016
1.03218538836108E+016
1.01005154880749E+016
9.88759185134609E+015
9.66925649241048E+015
9.28366867837542E+015
8971352871945344
8805560226304374
8521231052635322
8043570970612231
7772943151431999
7276034438977888
7000338995534668
6712266453325671
6427040539560699
5936586270355127
5521645858994328
5189622624874849
4745798840657101
4292548858221778
3.87591923877332E+015
3410511128990990
2956677222772278
2.60688602210109E+015
2.16762935604628E+015
1.73071881233545E+015
1.17719034731338E+015
738741790065945
830238476038924
1.38727778280862E+015
1.96906398806257E+015
2501362652674257
2891058787613875
3397070454762612
3892957300595791
4429750092897494
4871217327560847
5432555773185747
5816026863506015
6257963322638164
6747072481699858
7192449920269837
7541584206684715
8054821930652899
8303709016112288
8827175833500208
9.33045557151952E+015
9.68031976266363E+015
9.91883177375744E+015
1.03333446694911E+016
1.04850814354891E+016
1.06981093443221E+016
1.10590993689818E+016
1.1495269580753E+016
1.19373833024623E+016
1.20667849837456E+016
1.1928937262024E+016
1.23548888075858E+016
1.25477922003127E+016
1.26877253641179E+016
1.27938743661698E+016
1.28698887301146E+016
1.30980360940532E+016
1.31813495052904E+016
1.3494999994654E+016
1.34630927307759E+016
1.32781140179664E+016
1.33854100131642E+016
1.34176300933548E+016
1.34764395601105E+016
1.33950030467485E+016
1.34040747198119E+016
1.31727991927479E+016
1.31007471687618E+016
1.31095060255127E+016
1.30060680981694E+016
1.27563364086662E+016
1.25829318994203E+016
1.22793958041619E+016
1.21097450906664E+016
1.22347673435743E+016
1.16316574930162E+016
1.13451177507386E+016
1.14237389172878E+016
1.11150934889247E+016
1.06065584368549E+016
1.01188048151475E+016
1.00715591247451E+016
9.75308083695814E+015
9.32290627117712E+015
8774591411363893
8350777443937654
7998431576714134
7553658916348378
7454621271801339
6917181992453741
6309901257728583
5993591829708534
5368981071269207
4915334854838014
4.42893677048492E+015
3933790256591390
3.33762492817147E+015
2.94119281530204E+015
2.37451563794329E+015
2.00444351300973E+015
1.43924699953029E+015
889519252705467
935242570386955
1.60487280980458E+015
2.24368542883277E+015
2802375363011583
3286145790339428
3.90332194775096E+015
4.45946764258786E+015
4886211656141458
5562510096621180
6091180092007516
6525765367795207
7050087216437376
7685062622031867
7979151664651860
8477812148456142
9.06998385528609E+015
9.53014707822833E+015
9.98239604846356E+015
1.03065258842969E+016
1.08041540742698E+016
1.10667112325867E+016
1.14242602778087E+016
1.18827447198737E+016
1.2144363429253E+016
1.24711522037429E+016
1.27569620412912E+016
1.32729004127576E+016
1.31870844710201E+016
1.37913413147242E+016
1.406860083973E+016
1.39864344216388E+016
1.41351264421948E+016
1.42708887218329E+016
1.44370984558905E+016
1.47067461172915E+016
1.46476238342233E+016
1.49090339993943E+016
1.50420852043238E+016
1.51151799493517E+016
1.51032929294755E+016
1.51387454448956E+016
1.50068412331121E+016
1.49270730734169E+016
1.52131957272778E+016
1.48147720172186E+016
1.45089419356683E+016
1.46809909075599E+016
1.44581614209342E+016
1.43521166909865E+016
1.39324214716753E+016
1.38770529843574E+016
1.38013514367251E+016
1.32793652832165E+016
1.30386009946725E+016
1.27527911571241E+016
1.25729217774193E+016
1.22845051372665E+016
1.21324764093769E+016
1.16703424436657E+016
1.10927792586309E+016
1.07372113833883E+016
1.02543794049981E+016
9.81506017568077E+015
9.25857038290009E+015
9.02867124761128E+015
8562345543312198
8131399363960274
7738585493105773
7277077160019655
6647263223581911
6077364038204103
5494545539118801
5033933946128604
4361858525868037
3.86695183781412E+015
3262403032218391
2.68393267987726E+015
2250202435343816
1.63570607100963E+015
960814261215251
1.01377927653181E+015
1736380787592243
2.52235262724503E+015
3.11546278301257E+015
3772658574007121
4222415440952522
4937513531396400
5568005236511294
6072609230253645
6693726873203053
7371996056451714
7692903884265956
8432026267512147
9.11335062341319E+015
9.67429283504221E+015
9.78541561646333E+015
1.04231125239768E+016
1.12435567212704E+016
1.15097634032336E+016
1.19126708137724E+016
1.23918011324644E+016
1.2707849880224E+016
1.29364143325793E+016
1.35791475827246E+016
1.37672544586594E+016
1.41286615717358E+016
1.46136311282617E+016
1.4729477436002E+016
1.49757681460674E+016
1.52805555065759E+016
1.56215252872338E+016
1.574675608435E+016
1.61636359568485E+016
1.61961688533516E+016
1.61966902138725E+016
1.63668622878889E+016
1.65585144153657E+016
1.67438059444877E+016
1.68629889595617E+016
1.67890600377004E+016
1.67111687758804E+016
1.67253497820484E+016
1.64888606497757E+016
1.64324494414161E+016
1.6393451674454E+016
1.60958590891336E+016
1.60246412419809E+016
1.57992049527509E+016
1.58324677539833E+016
1.56339336676308E+016
1.52966134106192E+016
1.49850483633391E+016
1.46685825271628E+016
1.45219759486904E+016
1.41830916101161E+016
1.39212643565284E+016
1.36935340810064E+016
1.33197185875329E+016
1.2722030886392E+016
1.2415783716425E+016
1.17520917733403E+016
1.15751420125524E+016
1.10947604286103E+016
1.05212638556384E+016
9.78203720028801E+015
9.35414619358846E+015
9.03963024576025E+015
8411025865730960
7945951426681995
7285585763720475
6830177348728694
6277848012904662
5556900257416474
4863000685751723
4.27854511463085E+015
3.68039861623157E+015
3.01891724175536E+015
2459122023272272
1.71559935722982E+015
1.07768347829755E+015
1140059051016057
1.83987085098763E+015
2681023488170728
3.38873911363889E+015
4.11456680360255E+015
4704507087403124
5408552334804269
5992830643348044
6705853718918803
7392183135820326
8133735059093833
8643229414522075
9.08126609695801E+015
9.91270057403184E+015
1.04953001016984E+016
1.10514875053769E+016
1.16069450043263E+016
1.21397754566693E+016
1.26508130392393E+016
1.31349484189318E+016
1.37184551139047E+016
1.39484793757185E+016
1.44017502125746E+016
1.49332251275633E+016
1.53396777896441E+016
1.58331976587125E+016
1.60710423283396E+016
1.63977268307252E+016
1.67208660815688E+016
1.69377520582564E+016
1.72428522350774E+016
1.74487896408264E+016
1.76913265551415E+016
1.77396045393753E+016
1.80536721171555E+016
1.79478359314162E+016
1.82161280554629E+016
1.81958992672526E+016
1.81578399492281E+016
1.83156036428474E+016
1.84928662199478E+016
1.83070533303049E+016
1.8283487834761E+016
1.80872477347004E+016
1.8046268797759E+016
1.77908021425261E+016
1.76592107470551E+016
1.74486853687223E+016
1.73493140534419E+016
1.71084454927937E+016
1.69131438416707E+016
1.66244143852054E+016
1.63351635682192E+016
1.60492494585666E+016
1.55367520665381E+016
1.55019251837431E+016
1.49338507601884E+016
1.42993550062731E+016
1.40607804319168E+016
1.35447377883463E+016
1.29742651063955E+016
1.23344514751672E+016
1.17874400166562E+016
1.13183198199651E+016
1.08920554580908E+016
1.04925890269898E+016
9.86834322091507E+015
9.32449120716061E+015
8469480807332420
8043487552928890
7435111961109877
6751451910075280
5874241979267872
5302570168119061
4624353120922487
4034590099699016
3314539084306746
2614539594547658
1.9392213118472E+015
1.12252048309353E+015
1289585248405459
2021825672775986
2906783020923722
3648032555095117
4295499758769979
5121480804795369
5881853842872772
6515901226740091
7373925090378983
8064560945183003
9.01832745487695E+015
9.41548947247562E+015
9.81691621913512E+015
1.06241804224608E+016
1.13408425944673E+016
1.18871241482491E+016
1.2541431601958E+016
1.30963677403864E+016
1.37144927739459E+016
1.44412693400576E+016
1.48903692927467E+016
1.54259108197983E+016
1.5709009582638E+016
1.58289225024413E+016
1.65066911795899E+016
1.70510958354965E+016
1.75584838944203E+016
1.76936205414334E+016
1.82607565160505E+016
1.83559569471638E+016
1.85835829505816E+016
1.87216392165115E+016
1.89670957497435E+016
1.92981596805046E+016
1.95973163473876E+016
1.96598796098936E+016
1.96947064926886E+016
2.00097125194064E+016
1.98420429758903E+016
2.02985462479759E+016
2.01372373028146E+016
1.99341152438783E+016
2.00567392383901E+016
1.97624833604035E+016
1.96292236112656E+016
1.92011866236202E+016
1.93067099930471E+016
1.91479035783859E+016
1.88579228566705E+016
1.86957797346757E+016
1.84932833083645E+016
1.80382398457374E+016
1.76706806785145E+016
1.72995762597496E+016
1.70466121350169E+016
1.67394265161123E+016
1.58797030171753E+016
1.57197496093682E+016
1.52074607615481E+016
1.47262450007726E+016
1.4274538245479E+016
1.34332709089814E+016
1.30401650762352E+016
1.23932609419228E+016
1.18635586527052E+016
1.15132043826714E+016
1.07214662956577E+016
9.95406531775875E+015
9.45149463004784E+015
8662290355165575
8067991497410416
7302092037811648
6515776100215080
5834222345684850
5130834012540021
4.40275404512614E+015
3.52785895503146E+015
2878295882062645
2.06620388031359E+015
1.21102664511873E+015
1.47659726724639E+015
2.23520810676321E+015
3071595508785430
3.95818992896874E+015
4753932064782885
5497861392031621
6353059481647323
7057354982098492
7759471195572367
8623344724255573
9.45398673333766E+015
1.017903238252E+016
1.06053071716048E+016
1.14079938295571E+016
1.21540607349415E+016
1.29699899501242E+016
1.37388924463233E+016
1.42681776471243E+016
1.48736857560784E+016
1.54454097032793E+016
1.59248528382838E+016
1.66958407765664E+016
1.67911454797839E+016
1.74257455058034E+016
1.80282297237364E+016
1.84199800191283E+016
1.89213202960099E+016
1.91944089368488E+016
1.93182841966107E+016
1.99057532315423E+016
2.02683073377647E+016
2.05542214474172E+016
2.0962446735269E+016
2.09909130197093E+016
2.10165639573368E+016
2.11784985351232E+016
2.16498084460019E+016
2.16213421615617E+016
2.13248965693873E+016
2.15455363418252E+016
2.15633668716394E+016
2.17539762780744E+016
2.15086240169466E+016
2.13034165159269E+016
2.09964394412306E+016
2.10079093726901E+016
2.07998865248575E+016
2.04637132609918E+016
2.04120985694244E+016
2.01081453857493E+016
1.99258777476484E+016
1.95453888395076E+016
1.90917009142347E+016
1.89271595338438E+016
1.85323853474308E+016
1.79413710609572E+016
1.75897655256734E+016
1.69258650383802E+016
1.63470505880953E+016
1.60107730521254E+016
1.55538526916231E+016
1.48033020857591E+016
1.42227150097032E+016
1.35512026588052E+016
1.29162898164732E+016
1.22123488411763E+016
1.16173722147439E+016
1.07763134224546E+016
1.00313935102162E+016
9.39206995787754E+015
8627724152630995
8007263423937901
7062568587307327
6284740398990744
5493700935074970
4693975604881276
3960619468996058
3.0977156708817E+015
2.2111316779088E+015
1.32995940714268E+015
1530349536949482
2.43054103951744E+015
3.35990787683403E+015
4192437211001719
5084047119395930
5967763629503963
6790480958668620
7843034859859584
8378055026390282
9.27295993327647E+015
1.01392838564078E+016
1.09315745855737E+016
1.16960976533974E+016
1.24362210488437E+016
1.30182679343581E+016
1.39455597568015E+016
1.45125914593145E+016
1.51263370644986E+016
1.57839812255411E+016
1.64099266669139E+016
1.70617315901225E+016
1.80364672199664E+016
1.83010055482627E+016
1.88497896325447E+016
1.96368354748705E+016
1.99470449847962E+016
2.03931210464642E+016
2.06871683802425E+016
2.10819425666555E+016
2.14782808346312E+016
2.18256112136438E+016
2.19056921896516E+016
2.21765911163027E+016
2.28507102698051E+016
2.26680255432875E+016
2.3031205282135E+016
2.30401726830942E+016
2.29859511889223E+016
2.31354773863117E+016
2.30900147488906E+016
2.33496522882906E+016
2.30469503698656E+016
2.32334931642378E+016
2.30476802745949E+016
2.30617570086587E+016
2.27660413212136E+016
2.25132857406892E+016
2.23826327941558E+016
2.20955716913573E+016
2.18426075666246E+016
2.15587788990556E+016
2.11201061567842E+016
2.08293955303396E+016
2.02328548223446E+016
1.98590393288711E+016
1.94249545591835E+016
1.8916628051322E+016
1.8300588459846E+016
1.76896582014747E+016
1.71172043495445E+016
1.65645621974079E+016
1.62406930418351E+016
1.52843093023263E+016
1.47724375429228E+016
1.39258523291121E+016
1.32170105649189E+016
1.24236041242383E+016
1.14536650111865E+016
1.09657758357437E+016
1.00592550164522E+016
9.23568265603331E+015
8501940713362630
7610518494755937
6614480074028752
5926378031356227
4943112943390689
4198589265148146
3.31585291281937E+015
2424576675158528
1.38654787807938E+015
1.61927278739138E+015
2.67755122710164E+015
3.60277846188242E+015
4476297160201977
5518705385656545
6446289169991720
7237370342749164
8163713289044636
8836299642615669
9.98270886477609E+015
1.09090518110716E+016
1.16894242387301E+016
1.26346508630919E+016
1.34246163243347E+016
1.39764242996378E+016
1.47055991241456E+016
1.58337190192334E+016
1.62647798978999E+016
1.72615169417251E+016
1.77372062809792E+016
1.86585545934846E+016
1.89206946633849E+016
1.95563374104461E+016
2.00886465022682E+016
2.08534823864044E+016
2.16474101876058E+016
2.18027756228291E+016
2.23393598709225E+016
2.23699115974463E+016
2.30235934185301E+016
2.31491370319588E+016
2.36073086577113E+016
2.40410806110864E+016
2.43216768434259E+016
2.41481680620759E+016
2.46310521765182E+016
2.47779715713032E+016
2.47757818571155E+016
2.49878713170109E+016
2.48934007906268E+016
2.50820290270825E+016
2.49737945829471E+016
2.48294819907665E+016
2.4628549646018E+016
2.43232409249886E+016
2.40663144602972E+016
2.39950966131445E+016
2.3794789901021E+016
2.36853041916355E+016
2.3322750085413E+016
2.29950228619856E+016
2.27823077694652E+016
2.20677310395422E+016
2.17315577756765E+016
2.1274011782549E+016
2.07598460368537E+016
2.01749838045265E+016
1.98113869772623E+016
1.89681384707853E+016
1.83242582274941E+016
1.78375160451972E+016
1.71975981418648E+016
1.64243162172903E+016
1.57264230240356E+016
1.4802050820509E+016
1.39720448712624E+016
1.32492306451095E+016
1.25360094525408E+016
1.17772213504468E+016
1.08933067233409E+016
9.77428978294768E+015
9.09255876584035E+015
8199635028933514
7170667477707322
6166985911743985
5427926091760301
4.34834486116674E+015
3486525492935811
2.52246732655962E+015
1.51409351590833E+015
1.59465414359526E+015
2778069535527992
3775682465028245
4895783835304881
5860728314566570
6872678658391122
7873367614964588
8742183641385770
9.53142962510971E+015
1.06263701366485E+016
1.13319794656123E+016
1.24295476341763E+016
1.34720601317351E+016
1.42819415648756E+016
1.49940157642983E+016
1.57891948307499E+016
1.67007415654627E+016
1.73250186531687E+016
1.80206178601315E+016
1.8882426801152E+016
1.97568526667779E+016
2.0164660866213E+016
2.07739227709175E+016
2.13870427434766E+016
2.22760667036872E+016
2.2534974338358E+016
2.31883433431293E+016
2.38925971347388E+016
2.4109900199843E+016
2.45034231210059E+016
2.51286386576495E+016
2.52273843403048E+016
2.56428044033448E+016
2.59121392484333E+016
2.62011815212111E+016
2.60815814177204E+016
2.64465337823389E+016
2.63264123183273E+016
2.67616440811609E+016
2.66057572854167E+016
2.65404829482021E+016
2.64987741065314E+016
2.66138905095425E+016
2.60905488186796E+016
2.612026636837E+016
2.57879511723588E+016
2.55451014417313E+016
2.53031901600413E+016
2.51714944924661E+016
2.49060177152322E+016
2.45965381100357E+016
2.40956149215708E+016
2.36409885473604E+016
2.32545561292815E+016
2.27907538099035E+016
2.20171590690165E+016
2.12533659059221E+016
2.08247032856516E+016
2.01506884042534E+016
1.95504981726122E+016
1.89152725139677E+016
1.81281223995377E+016
1.73659975901101E+016
1.6525043069925E+016
1.56967054743452E+016
1.4879316449704E+016
1.414649210155E+016
1.33549625587446E+016
1.25631201996267E+016
1.13584645800732E+016
1.06843454265707E+016
9.70121589234064E+015
8591562586902515
7746510173023204
6772400175804380
5857110072551638
4718354422837791
3779915912457820
2733628764727878
1.62810463461515E+015
1.69984384228872E+015
2949263476165314
3998803913545569
5066508551473407
6077009513049902
7274282667627720
8355261144417252
9.3806000264181E+015
1.01400346155579E+016
1.11000783059233E+016
1.21752279720893E+016
1.31868759268118E+016
1.40647427718755E+016
1.50427108369489E+016
1.59077522131989E+016
1.6959962016446E+016
1.76553526792005E+016
1.83473023625172E+016
1.92400801184782E+016
1.98854201712278E+016
2.09047842616593E+016
2.14001810286029E+016
2.21843072520117E+016
2.30136875686333E+016
2.3674981253322E+016
2.40846663506323E+016
2.5006223207346E+016
2.46852736706901E+016
2.54502138269304E+016
2.59376859139566E+016
2.61903372223767E+016
2.68397438871893E+016
2.69421390934908E+016
2.7625538464265E+016
2.75228304416509E+016
2.78439885225152E+016
2.81719242901509E+016
2.78068676534283E+016
2.82077938939877E+016
2.80783922127044E+016
2.79212541517101E+016
2.8212694682884E+016
2.8089340783643E+016
2.78916408741239E+016
2.79313685458153E+016
2.76580713607681E+016
2.72869669420032E+016
2.67566390201604E+016
2.6775825087329E+016
2.64923092360725E+016
2.58548938632403E+016
2.57540627385014E+016
2.50878682649164E+016
2.43733958070976E+016
2.38729939791535E+016
2.33787442053559E+016
2.24209006563887E+016
2.22778393294582E+016
2.14371976255856E+016
2.06208513219861E+016
2.00105466962399E+016
1.94243289265584E+016
1.87625138813488E+016
1.74365898046378E+016
1.68709136394791E+016
1.58400796175882E+016
1.49766023229008E+016
1.4060884704021E+016
1.30975147335323E+016
1.22625037232853E+016
1.11288574066761E+016
1.01902520609294E+016
9.34110175335596E+015
8210844280132509
7130408018284695
6293634809477017
5008116173134450
4.01706195898691E+015
2873030140801722
1.67735234941781E+015
1.70633999437893E+015
3099144198708917
4.28039073087477E+015
5423119147757754
6392755871707397
7484964454116761
8793808760163660
9.88814449349823E+015
1.08807940708397E+016
1.18989068960211E+016
1.3015869675962E+016
1.41086413277339E+016
1.48399015943252E+016
1.59070223084696E+016
1.69447382892362E+016
1.78584747381367E+016
1.87400953789508E+016
1.94377800279972E+016
2.05478608490624E+016
2.11549330395792E+016
2.19273807873203E+016
2.26905483177897E+016
2.3450796229342E+016
2.42353395411676E+016
2.49097715109826E+016
2.53756592724441E+016
2.62301691661722E+016
2.64152521510859E+016
2.70359839872499E+016
2.76328375115573E+016
2.78435714340985E+016
2.83462672483344E+016
2.8441050591031E+016
2.87947415683984E+016
2.91284123017639E+016
2.93681338692661E+016
2.95924231653502E+016
2.94050461941447E+016
2.97721882729509E+016
2.98233858761017E+016
2.97705199192841E+016
2.95560322009926E+016
2.96342362791251E+016
2.95681277650771E+016
2.92007771420625E+016
2.91488496341825E+016
2.89109006924513E+016
2.82292739474481E+016
2.81280257342925E+016
2.78187546733044E+016
2.75326320194435E+016
2.71049078481107E+016
2.6618269937918E+016
2.59562463485E+016
2.50977741148132E+016
2.45895518790559E+016
2.37049073472207E+016
2.32886531073473E+016
2.26351798304718E+016
2.1976180132075E+016
2.11782899909148E+016
2.02746679361195E+016
1.96824023843958E+016
1.8404443475606E+016
1.74379453419921E+016
1.67659116305732E+016
1.57961810617298E+016
1.49062186525816E+016
1.39094816087564E+016
1.27059729823488E+016
1.18603262174757E+016
1.08837136897566E+016
9.76960796547015E+015
8780222104989435
7613094015729103
6478113016186451
5386477930350060
4.16515962854909E+015
3.0508662144751E+015
1.79812030047527E+015
1.91890910595357E+015
3.32089968266153E+015
4449405384534803
5742139650486398
6892657193551379
8051641631475509
9.19366099805009E+015
1.04840387144473E+016
1.14313507808927E+016
1.25057705423295E+016
1.35715357191197E+016
1.46596151262036E+016
1.56465505922362E+016
1.69033422638781E+016
1.79431436867282E+016
1.87565703714107E+016
1.98834390012484E+016
2.04059465152779E+016
2.16651364453159E+016
2.25545774939432E+016
2.3073122668014E+016
2.38713256254867E+016
2.44794405370453E+016
2.54709639756616E+016
2.61372627213508E+016
2.65355821593058E+016
2.75110476938789E+016
2.7904049254521E+016
2.81410597473146E+016
2.91228858802425E+016
2.92654258466521E+016
2.95030619720708E+016
3.02690448493529E+016
3.02620586183731E+016
3.0423680379847E+016
3.08173075731141E+016
3.10560906916787E+016
3.12417993092174E+016
3.11502484017503E+016
3.12430505744676E+016
3.1143574987083E+016
3.1410303029567E+016
3.13240699994129E+016
3.08265877903858E+016
3.0861518945285E+016
3.07355582434395E+016
3.0410125006304E+016
2.99985630111185E+016
2.99610250536149E+016
2.93180832592613E+016
2.87849399906058E+016
2.83356314937084E+016
2.77423232209429E+016
2.70787355499623E+016
2.65442367439525E+016
2.59679248241678E+016
2.53450032738161E+016
2.446807487769E+016
2.3916371174491E+016
2.28596776707643E+016
2.20435399113732E+016
2.14281259525222E+016
2.02619467394099E+016
1.9493148515315E+016
1.85139291849915E+016
1.77626486743983E+016
1.65879191487435E+016
1.5619856933567E+016
1.45864161090716E+016
1.33950030467485E+016
1.2704304628682E+016
1.14792116767098E+016
1.01824316531162E+016
9.15691550853822E+015
8074028852242249
6894335974428625
5659576998399280
4368260833064487
3.17329209198898E+015
1.89666786613268E+015
2058143646660734