/*--------------------------------*- C++ -*----------------------------------*\
| =========                 |                                                 |
| \\      /  F ield         | OpenFOAM: The Open Source CFD Toolbox           |
|  \\    /   O peration     | Version:  v1806                                 |
|   \\  /    A nd           | Web:      www.OpenFOAM.com                      |
|    \\/     M anipulation  |                                                 |
\*---------------------------------------------------------------------------*/
FoamFile
{
    version     2.0;
    format      ascii;
    class       volScalarField;
    object      dnp4;
}
// * * * * * * * * * * * * * * * * * * * * * * * * * * * * * * * * * * * * * //

dimensions      [0 -3 0 0 0 0 0];

internalField   nonuniform List<scalar> 
6400
(
1.22878E+016
1.833932E+016
2.895228E+016
4.051537E+016
4.194182E+016
4.122963E+016
5.064776E+016
6.602509E+016
7.363147E+016
6.905032E+016
5.794866E+016
7.885567E+016
8.683595E+016
8.47518E+016
8.39492E+016
1.253466E+017
1.159895E+017
1.04686E+017
9.738767E+016
1.243741E+017
1.279609E+017
1.464311E+017
1.36985E+017
1.393741E+017
1.40964E+017
1.519307E+017
1.50611E+017
1.804598E+017
1.651055E+017
1.584571E+017
1.585262E+017
1.746231E+017
1.5977E+017
1.657509E+017
1.790975E+017
1.673651E+017
1.590751E+017
1.466604E+017
1.66991E+017
1.675864E+017
1.496303E+017
1.585898E+017
1.5694E+017
1.739583E+017
1.721447E+017
1.551151E+017
1.671918E+017
1.623221E+017
1.5827E+017
1.776649E+017
1.616162E+017
1.742225E+017
1.602888E+017
1.44958E+017
1.297207E+017
1.210937E+017
1.234334E+017
1.130043E+017
1.316424E+017
1.215407E+017
1.202486E+017
1.215903E+017
1.155128E+017
1.089443E+017
1.088105E+017
9.198682E+016
8.265475E+016
9.710109E+016
6.984523E+016
6.651882E+016
5.993354E+016
6.386394E+016
5.635513E+016
5.865158E+016
5.097652E+016
4.558273E+016
3.167831E+016
2.084803E+016
1.919644E+016
8643213000000000
2.180629E+016
3.530058E+016
3.541277E+016
5.115942E+016
6.934533E+016
6.998379E+016
8.274127E+016
1.046644E+017
1.211269E+017
1.186116E+017
1.261634E+017
1.335729E+017
1.637311E+017
1.427834E+017
1.588836E+017
1.856823E+017
1.903975E+017
1.934043E+017
1.97317E+017
2.138417E+017
2.188579E+017
2.493458E+017
2.329842E+017
2.111766E+017
2.161654E+017
2.121525E+017
2.443016E+017
2.596181E+017
2.540614E+017
2.543928E+017
2.644226E+017
2.646757E+017
2.863804E+017
2.522612E+017
2.865484E+017
2.595356E+017
2.481152E+017
2.489031E+017
2.559179E+017
2.823263E+017
3.168999E+017
2.730105E+017
2.541311E+017
2.784216E+017
2.674226E+017
2.796315E+017
3.107964E+017
3.010652E+017
2.708137E+017
2.688377E+017
2.88261E+017
2.696264E+017
2.413417E+017
2.512757E+017
2.393368E+017
2.485772E+017
2.058982E+017
2.153707E+017
1.982501E+017
2.106598E+017
1.930424E+017
2.032782E+017
1.82748E+017
1.924439E+017
1.978982E+017
1.465602E+017
1.631804E+017
1.721453E+017
1.474004E+017
1.239468E+017
1.170584E+017
1.022522E+017
1.18963E+017
7.895952E+016
8.151125E+016
6.138242E+016
5.713975E+016
4.887354E+016
3.16772E+016
2.062884E+016
2.230359E+016
4.323022E+016
6.901539E+016
7.128583E+016
1.093503E+017
1.128603E+017
1.151571E+017
1.401436E+017
1.523593E+017
1.784883E+017
1.76407E+017
2.036971E+017
1.826938E+017
2.223449E+017
2.152253E+017
1.939169E+017
2.060446E+017
2.474481E+017
2.761293E+017
2.473203E+017
2.917189E+017
3.143396E+017
3.013345E+017
3.434765E+017
3.238227E+017
3.098002E+017
3.214166E+017
3.317516E+017
3.058437E+017
3.563194E+017
3.346378E+017
3.579211E+017
3.532975E+017
3.732399E+017
3.744049E+017
3.899564E+017
3.57815E+017
3.580506E+017
3.778587E+017
3.933131E+017
3.804111E+017
3.655999E+017
4.103551E+017
3.937687E+017
3.941366E+017
3.869382E+017
3.978834E+017
3.824967E+017
3.678834E+017
3.841028E+017
3.568882E+017
3.411737E+017
3.682371E+017
3.48965E+017
3.227174E+017
3.225878E+017
3.281965E+017
2.837533E+017
2.538687E+017
2.707081E+017
2.844532E+017
2.831637E+017
3.070016E+017
2.720699E+017
2.517926E+017
2.570399E+017
2.154496E+017
1.932617E+017
1.950165E+017
1.69616E+017
1.564082E+017
1.602453E+017
1.449246E+017
1.296751E+017
1.062063E+017
7.548054E+016
6.279157E+016
5.125058E+016
3.936028E+016
2.376354E+016
2.927449E+016
5.823739E+016
7.79689E+016
1.081547E+017
1.187308E+017
1.308541E+017
1.619992E+017
1.917674E+017
2.186631E+017
2.193178E+017
2.232945E+017
2.211256E+017
2.205728E+017
2.662482E+017
2.643906E+017
2.939118E+017
2.932064E+017
3.094576E+017
3.304452E+017
3.846994E+017
3.859095E+017
4.243856E+017
4.089303E+017
4.001547E+017
4.222163E+017
4.283353E+017
4.245953E+017
4.567364E+017
4.482598E+017
4.466457E+017
4.356388E+017
4.433504E+017
4.493874E+017
4.531886E+017
4.964227E+017
4.719224E+017
4.53924E+017
4.884166E+017
5.128364E+017
4.825387E+017
5.116563E+017
4.948531E+017
4.832232E+017
5.187388E+017
4.97216E+017
5.058861E+017
4.622408E+017
5.017633E+017
4.758802E+017
4.827913E+017
4.232116E+017
4.734014E+017
4.647077E+017
4.224657E+017
4.080887E+017
3.985664E+017
3.497709E+017
3.912813E+017
3.79051E+017
3.360998E+017
3.123655E+017
3.329788E+017
3.289224E+017
3.309554E+017
3.037545E+017
3.069156E+017
2.632921E+017
2.425392E+017
2.094944E+017
1.851702E+017
2.146402E+017
1.812887E+017
1.632189E+017
1.489974E+017
1.128259E+017
1.027496E+017
9.601735E+016
7.301845E+016
5.51045E+016
2.953811E+016
3.128567E+016
5.533734E+016
1.060318E+017
1.242371E+017
1.328493E+017
1.382491E+017
1.972667E+017
1.804433E+017
2.145735E+017
2.396261E+017
2.729976E+017
2.571762E+017
3.187419E+017
3.259551E+017
3.451382E+017
3.609618E+017
3.844232E+017
3.821789E+017
4.252133E+017
4.28216E+017
4.63756E+017
4.66158E+017
4.949162E+017
5.101276E+017
4.667503E+017
5.354793E+017
5.227237E+017
5.475894E+017
5.036139E+017
5.365135E+017
5.626424E+017
5.556907E+017
5.966509E+017
5.623992E+017
5.871609E+017
5.961278E+017
5.808674E+017
6.096226E+017
6.056412E+017
6.367422E+017
5.531533E+017
5.650215E+017
5.6976E+017
5.733125E+017
6.036783E+017
5.823785E+017
5.723949E+017
5.738126E+017
5.880472E+017
5.761422E+017
5.767871E+017
5.133464E+017
5.00711E+017
4.993744E+017
5.177206E+017
4.768942E+017
4.515673E+017
4.512177E+017
4.427033E+017
4.679953E+017
3.66715E+017
3.916218E+017
4.070818E+017
3.905693E+017
3.764047E+017
3.40352E+017
3.057705E+017
2.914351E+017
2.497828E+017
2.288405E+017
2.114319E+017
2.324448E+017
1.913382E+017
1.739773E+017
1.755059E+017
1.132901E+017
1.134444E+017
7.723666E+016
6.157227E+016
4.931004E+016
3.697154E+016
7.220313E+016
7.607104E+016
1.277274E+017
1.458927E+017
1.606445E+017
2.111925E+017
2.149083E+017
2.740598E+017
3.494404E+017
3.416193E+017
3.530979E+017
3.805297E+017
3.990044E+017
4.168618E+017
4.30752E+017
4.483637E+017
4.976168E+017
4.866135E+017
5.314581E+017
5.407016E+017
5.529793E+017
5.405994E+017
6.014021E+017
5.407659E+017
5.702635E+017
6.308047E+017
6.182835E+017
6.513106E+017
6.625278E+017
6.339453E+017
6.729855E+017
6.45734E+017
6.903595E+017
6.886705E+017
7.040661E+017
7.30798E+017
7.071868E+017
6.918709E+017
6.843448E+017
6.796519E+017
6.912317E+017
7.219053E+017
6.593307E+017
7.287769E+017
6.871878E+017
7.02797E+017
7.272481E+017
6.981133E+017
6.763815E+017
6.321866E+017
6.275134E+017
6.311196E+017
5.498369E+017
6.036217E+017
5.310258E+017
6.023723E+017
5.517974E+017
5.289506E+017
4.835112E+017
4.603288E+017
4.617812E+017
4.655186E+017
4.87207E+017
4.233517E+017
4.182079E+017
3.75384E+017
3.425611E+017
3.598539E+017
3.173374E+017
2.758977E+017
2.389473E+017
2.236662E+017
2.037943E+017
1.947747E+017
1.37196E+017
1.168502E+017
9.63844E+016
6.568696E+016
3.869901E+016
3.787933E+016
6.693492E+016
1.073458E+017
1.352433E+017
1.697005E+017
1.926485E+017
2.575003E+017
2.795446E+017
3.15031E+017
3.584519E+017
3.703355E+017
3.998953E+017
4.487302E+017
4.62192E+017
4.851342E+017
5.056511E+017
4.749061E+017
5.135067E+017
5.791711E+017
5.865502E+017
5.83047E+017
6.299811E+017
6.104904E+017
6.431788E+017
6.577286E+017
6.941523E+017
6.617627E+017
7.600764E+017
7.388854E+017
7.250338E+017
7.673188E+017
7.962845E+017
7.489163E+017
7.772589E+017
7.941237E+017
7.59597E+017
8.557876E+017
8.719279E+017
8.071148E+017
7.826637E+017
8.695804E+017
8.07843E+017
7.968522E+017
7.986087E+017
8.102579E+017
8.356501E+017
7.711784E+017
7.595415E+017
8.329026E+017
7.76638E+017
7.233753E+017
7.030125E+017
6.855573E+017
7.162996E+017
6.501441E+017
6.62436E+017
6.178212E+017
6.20327E+017
6.01164E+017
5.918223E+017
5.8195E+017
5.240643E+017
5.428523E+017
4.681955E+017
4.793404E+017
4.608804E+017
4.450906E+017
4.407578E+017
3.634629E+017
3.323881E+017
3.149939E+017
2.653326E+017
2.373742E+017
2.503197E+017
2.07219E+017
1.582368E+017
1.162761E+017
1.167135E+017
7.58949E+016
4.616581E+016
5.36069E+016
7.536598E+016
1.305883E+017
1.547326E+017
1.880649E+017
2.60075E+017
2.628149E+017
3.149048E+017
3.265584E+017
3.754965E+017
4.04251E+017
4.556171E+017
4.491996E+017
5.071792E+017
5.27686E+017
5.121034E+017
5.305502E+017
5.747079E+017
6.447858E+017
6.79313E+017
6.55736E+017
7.156E+017
6.818147E+017
6.895344E+017
6.779003E+017
8.096464E+017
7.115817E+017
7.771937E+017
7.814603E+017
8.107453E+017
8.024181E+017
9.357548E+017
8.902268E+017
8.929335E+017
8.674249E+017
8.994195E+017
8.81081E+017
9.288813E+017
9.289465E+017
9.27813E+017
9.282913E+017
9.104391E+017
8.733796E+017
9.134138E+017
9.055562E+017
8.946743E+017
8.955508E+017
8.713306E+017
8.827505E+017
8.825005E+017
8.300429E+017
8.285379E+017
8.315128E+017
8.200941E+017
7.498505E+017
7.549332E+017
7.64823E+017
6.911027E+017
6.636363E+017
6.773586E+017
6.504615E+017
6.531747E+017
5.92086E+017
5.639059E+017
5.174605E+017
4.913282E+017
4.793306E+017
4.665049E+017
3.803595E+017
4.272475E+017
3.856813E+017
3.242068E+017
2.833667E+017
2.53071E+017
2.307417E+017
2.000985E+017
1.439563E+017
9.984529E+016
8.720553E+016
4.841428E+016
5.772739E+016
9.219476E+016
1.514173E+017
1.645527E+017
2.117808E+017
2.527783E+017
2.8039E+017
3.154242E+017
4.157866E+017
4.227638E+017
4.567689E+017
4.595271E+017
5.048821E+017
5.648818E+017
5.903922E+017
5.649207E+017
6.02158E+017
6.376398E+017
7.067097E+017
7.080197E+017
6.879381E+017
7.26428E+017
7.482011E+017
7.352577E+017
8.029711E+017
8.864908E+017
8.426619E+017
8.559373E+017
8.790607E+017
9.462296E+017
9.100706E+017
9.672689E+017
9.707014E+017
9.771651E+017
9.518367E+017
9.142114E+017
9.649332E+017
1.00654E+018
9.341381E+017
1.011419E+018
1.02864E+018
1.015494E+018
9.437282E+017
9.954667E+017
1.032503E+018
9.804845E+017
9.565841E+017
9.89401E+017
9.297014E+017
9.152324E+017
9.517924E+017
9.618304E+017
8.868494E+017
8.65937E+017
8.539475E+017
7.960104E+017
7.939492E+017
8.168422E+017
7.505942E+017
7.626869E+017
7.078539E+017
6.640318E+017
6.30546E+017
6.207702E+017
5.962231E+017
5.667544E+017
5.147412E+017
4.891766E+017
4.780752E+017
4.33222E+017
4.339784E+017
3.71557E+017
3.260271E+017
2.915302E+017
2.40573E+017
2.161893E+017
1.739533E+017
1.248572E+017
9.03077E+016
5.888696E+016
6.898328E+016
1.0874E+017
1.382567E+017
1.699776E+017
2.306136E+017
2.688763E+017
3.044164E+017
4.074465E+017
4.60085E+017
4.482432E+017
4.842651E+017
4.909651E+017
6.056637E+017
6.060526E+017
6.672924E+017
6.429827E+017
6.896679E+017
7.604023E+017
7.54268E+017
7.708869E+017
7.762801E+017
8.104361E+017
8.961295E+017
8.839312E+017
8.843223E+017
8.984733E+017
9.61804E+017
9.94479E+017
1.009571E+018
1.072048E+018
1.080245E+018
1.072467E+018
1.032568E+018
1.063931E+018
1.036196E+018
1.0274E+018
1.022349E+018
1.065982E+018
1.085274E+018
1.073288E+018
1.09964E+018
1.103573E+018
1.067848E+018
1.105864E+018
1.047896E+018
1.004496E+018
1.109827E+018
1.087285E+018
1.008605E+018
1.005698E+018
1.038322E+018
9.76933E+017
9.15746E+017
9.646943E+017
9.838144E+017
9.436457E+017
8.738075E+017
8.05855E+017
8.155604E+017
8.232824E+017
7.455482E+017
7.136004E+017
7.231918E+017
7.054848E+017
6.68102E+017
6.446827E+017
6.363946E+017
6.33218E+017
5.098667E+017
5.064494E+017
4.386617E+017
4.400556E+017
3.790428E+017
3.081959E+017
2.537549E+017
2.297267E+017
1.782114E+017
1.480471E+017
1.227906E+017
6.506188E+016
7.27636E+016
1.24804E+017
1.647884E+017
1.986782E+017
2.832193E+017
3.365859E+017
3.290939E+017
3.919011E+017
4.531615E+017
4.690829E+017
5.564882E+017
6.21258E+017
5.915266E+017
6.636415E+017
6.958028E+017
7.095797E+017
6.861122E+017
7.738356E+017
7.793876E+017
8.467461E+017
8.501052E+017
8.757568E+017
9.45494E+017
1.024483E+018
9.886946E+017
1.022893E+018
1.062635E+018
1.029185E+018
1.060694E+018
1.126012E+018
1.167407E+018
1.139425E+018
1.131628E+018
1.147909E+018
1.158447E+018
1.19776E+018
1.153242E+018
1.175904E+018
1.113276E+018
1.154806E+018
1.218415E+018
1.180893E+018
1.180346E+018
1.140428E+018
1.161531E+018
1.12621E+018
1.105953E+018
1.134908E+018
1.092542E+018
1.132356E+018
1.094713E+018
1.082088E+018
1.005733E+018
1.024105E+018
1.047593E+018
1.017626E+018
9.773906E+017
8.86997E+017
9.003258E+017
9.4351E+017
8.655715E+017
8.492215E+017
7.568073E+017
7.962256E+017
7.308115E+017
6.813345E+017
6.557651E+017
6.332385E+017
5.350317E+017
5.329706E+017
4.94245E+017
4.577758E+017
3.816064E+017
3.271481E+017
3.255935E+017
2.445461E+017
1.93515E+017
1.604814E+017
1.231572E+017
7.757354E+016
6.759906E+016
1.423756E+017
1.721659E+017
2.581419E+017
2.988455E+017
3.48321E+017
4.140657E+017
4.086776E+017
4.568537E+017
5.08988E+017
5.696995E+017
6.243768E+017
6.711667E+017
6.993906E+017
7.782042E+017
7.677887E+017
7.591871E+017
7.984696E+017
8.131408E+017
8.106096E+017
9.261699E+017
9.927821E+017
9.879915E+017
1.024212E+018
1.059359E+018
1.043703E+018
1.133907E+018
1.100378E+018
1.166179E+018
1.168883E+018
1.203978E+018
1.192833E+018
1.199917E+018
1.229374E+018
1.235788E+018
1.234097E+018
1.294517E+018
1.286668E+018
1.255908E+018
1.249612E+018
1.317674E+018
1.24294E+018
1.267714E+018
1.254865E+018
1.226774E+018
1.229997E+018
1.239334E+018
1.245372E+018
1.186005E+018
1.274588E+018
1.268763E+018
1.124642E+018
1.075618E+018
1.075949E+018
1.096793E+018
1.07226E+018
1.041766E+018
1.03825E+018
9.651778E+017
9.694147E+017
9.148173E+017
8.778535E+017
8.256517E+017
7.568163E+017
7.969015E+017
7.160478E+017
6.633064E+017
6.39565E+017
6.147264E+017
4.987348E+017
5.087087E+017
4.442764E+017
3.930658E+017
3.514137E+017
3.013287E+017
2.843718E+017
2.037276E+017
1.943981E+017
1.327979E+017
6.34408E+016
7.854203E+016
1.450741E+017
2.047448E+017
2.488304E+017
3.144861E+017
3.842312E+017
4.057284E+017
4.199459E+017
5.246047E+017
5.966649E+017
6.176986E+017
6.368084E+017
6.968669E+017
8.43114E+017
7.724874E+017
8.572651E+017
9.213413E+017
8.577513E+017
8.712287E+017
9.114944E+017
9.72687E+017
1.047051E+018
1.10467E+018
1.057595E+018
1.099929E+018
1.151297E+018
1.144345E+018
1.256555E+018
1.270528E+018
1.296937E+018
1.278755E+018
1.353546E+018
1.31054E+018
1.317129E+018
1.389165E+018
1.331729E+018
1.324251E+018
1.338732E+018
1.36704E+018
1.396334E+018
1.374402E+018
1.38432E+018
1.361606E+018
1.377995E+018
1.340012E+018
1.26649E+018
1.299083E+018
1.245849E+018
1.295381E+018
1.242324E+018
1.301983E+018
1.184711E+018
1.171358E+018
1.188252E+018
1.175901E+018
1.165156E+018
1.153049E+018
1.067408E+018
9.804317E+017
1.008344E+018
9.584792E+017
9.24719E+017
9.195123E+017
8.501131E+017
7.949464E+017
7.595721E+017
7.085946E+017
6.476436E+017
6.138914E+017
5.992497E+017
5.253823E+017
4.576665E+017
4.315559E+017
3.785724E+017
3.454608E+017
3.041446E+017
2.271795E+017
1.61917E+017
1.272344E+017
8.249645E+016
8.35735E+016
1.478333E+017
2.129018E+017
2.506311E+017
3.191297E+017
3.872576E+017
4.597936E+017
4.873318E+017
5.471258E+017
5.442661E+017
6.637617E+017
6.631204E+017
7.756509E+017
8.190881E+017
8.314007E+017
9.343591E+017
9.625395E+017
9.986596E+017
9.89425E+017
1.023913E+018
1.097851E+018
1.066007E+018
1.157049E+018
1.169684E+018
1.231878E+018
1.239924E+018
1.313681E+018
1.358595E+018
1.316317E+018
1.40491E+018
1.411969E+018
1.384882E+018
1.340067E+018
1.477497E+018
1.440908E+018
1.50478E+018
1.407626E+018
1.423641E+018
1.410631E+018
1.47097E+018
1.433671E+018
1.393163E+018
1.455528E+018
1.502993E+018
1.438449E+018
1.395391E+018
1.409744E+018
1.389309E+018
1.351763E+018
1.409978E+018
1.379313E+018
1.227637E+018
1.361336E+018
1.24851E+018
1.278654E+018
1.243089E+018
1.218045E+018
1.135569E+018
1.126821E+018
1.077949E+018
1.089637E+018
9.946091E+017
9.742613E+017
9.407806E+017
8.690178E+017
7.638419E+017
7.326004E+017
7.17806E+017
7.19769E+017
6.317738E+017
5.369866E+017
4.891841E+017
4.100978E+017
4.036429E+017
3.49244E+017
3.19043E+017
2.576948E+017
2.288533E+017
1.400198E+017
9.349331E+016
1.054776E+017
1.533572E+017
2.256018E+017
2.778174E+017
3.253298E+017
4.108547E+017
4.633402E+017
4.929198E+017
5.946489E+017
6.196379E+017
6.611421E+017
7.414424E+017
7.699487E+017
8.446217E+017
8.831189E+017
9.815609E+017
1.065624E+018
1.008581E+018
1.042141E+018
1.036661E+018
1.147638E+018
1.139388E+018
1.212493E+018
1.269774E+018
1.321072E+018
1.290273E+018
1.36611E+018
1.457984E+018
1.435362E+018
1.397878E+018
1.44977E+018
1.500953E+018
1.502627E+018
1.5169E+018
1.485664E+018
1.482265E+018
1.548929E+018
1.482021E+018
1.529669E+018
1.520069E+018
1.463875E+018
1.495077E+018
1.466121E+018
1.490662E+018
1.51531E+018
1.478237E+018
1.459131E+018
1.456076E+018
1.549705E+018
1.510841E+018
1.388631E+018
1.447632E+018
1.441867E+018
1.354865E+018
1.314039E+018
1.241785E+018
1.22844E+018
1.187715E+018
1.212763E+018
1.175797E+018
1.109535E+018
1.112024E+018
1.005795E+018
9.403884E+017
9.048516E+017
8.269003E+017
8.00723E+017
7.462566E+017
7.273826E+017
6.28902E+017
5.963272E+017
5.722134E+017
5.198852E+017
4.497066E+017
3.839959E+017
3.348091E+017
3.184267E+017
2.062617E+017
1.610192E+017
9.838802E+016
1.009784E+017
1.533102E+017
2.346848E+017
3.21882E+017
3.401714E+017
4.027704E+017
4.529064E+017
5.389374E+017
6.333052E+017
6.326981E+017
7.131501E+017
7.993327E+017
8.293889E+017
8.907729E+017
9.232012E+017
9.533929E+017
9.761802E+017
1.060765E+018
1.081136E+018
1.236507E+018
1.188351E+018
1.279976E+018
1.272446E+018
1.284962E+018
1.35757E+018
1.357978E+018
1.488673E+018
1.447912E+018
1.418256E+018
1.485856E+018
1.576746E+018
1.513023E+018
1.595656E+018
1.6225E+018
1.530208E+018
1.541122E+018
1.566371E+018
1.596825E+018
1.573208E+018
1.64717E+018
1.651493E+018
1.615937E+018
1.618576E+018
1.636258E+018
1.692974E+018
1.589803E+018
1.580438E+018
1.555289E+018
1.61787E+018
1.522641E+018
1.489864E+018
1.522381E+018
1.466777E+018
1.465027E+018
1.369718E+018
1.398385E+018
1.300696E+018
1.281551E+018
1.279241E+018
1.340738E+018
1.180132E+018
1.109937E+018
1.011863E+018
1.031528E+018
9.425309E+017
9.96986E+017
8.343075E+017
7.996496E+017
7.412216E+017
6.847613E+017
6.750825E+017
5.697218E+017
5.121527E+017
4.173491E+017
3.628689E+017
3.466152E+017
3.147952E+017
2.114287E+017
1.475083E+017
9.017995E+016
1.215327E+017
1.578147E+017
2.332035E+017
3.215363E+017
4.161138E+017
4.570692E+017
5.197583E+017
5.910915E+017
6.4256E+017
6.542461E+017
7.84217E+017
8.291404E+017
8.759225E+017
9.026855E+017
9.276421E+017
1.0019E+018
1.068962E+018
1.096478E+018
1.160148E+018
1.226318E+018
1.254901E+018
1.30038E+018
1.39406E+018
1.374448E+018
1.428058E+018
1.506172E+018
1.5581E+018
1.587967E+018
1.547465E+018
1.573847E+018
1.618575E+018
1.56902E+018
1.646494E+018
1.676426E+018
1.735334E+018
1.652059E+018
1.66263E+018
1.735339E+018
1.698766E+018
1.696648E+018
1.700853E+018
1.74198E+018
1.674653E+018
1.723508E+018
1.789873E+018
1.766371E+018
1.699167E+018
1.704373E+018
1.646515E+018
1.691273E+018
1.541299E+018
1.589777E+018
1.567087E+018
1.456392E+018
1.466808E+018
1.465446E+018
1.448396E+018
1.329425E+018
1.282817E+018
1.249641E+018
1.244625E+018
1.155059E+018
1.158173E+018
1.120191E+018
1.041506E+018
9.671938E+017
8.752175E+017
8.279362E+017
8.143829E+017
6.896217E+017
6.956888E+017
6.511854E+017
5.542161E+017
4.962136E+017
4.14287E+017
3.665115E+017
3.384284E+017
2.399736E+017
1.714207E+017
1.167432E+017
1.17886E+017
1.738808E+017
2.63087E+017
3.219602E+017
3.804855E+017
4.599299E+017
5.025907E+017
6.262333E+017
6.394725E+017
7.142945E+017
8.210676E+017
8.885405E+017
8.681986E+017
9.165924E+017
9.535848E+017
1.103895E+018
1.13322E+018
1.120864E+018
1.199035E+018
1.203055E+018
1.331284E+018
1.433826E+018
1.465322E+018
1.411184E+018
1.496143E+018
1.567908E+018
1.534602E+018
1.560636E+018
1.64621E+018
1.656582E+018
1.726322E+018
1.728559E+018
1.708501E+018
1.717207E+018
1.789988E+018
1.861689E+018
1.811918E+018
1.802192E+018
1.804526E+018
1.780762E+018
1.819106E+018
1.759961E+018
1.810241E+018
1.833815E+018
1.801545E+018
1.795082E+018
1.773315E+018
1.721895E+018
1.716045E+018
1.655648E+018
1.693022E+018
1.565493E+018
1.598708E+018
1.561805E+018
1.615053E+018
1.575639E+018
1.519489E+018
1.381754E+018
1.322071E+018
1.302895E+018
1.316205E+018
1.240838E+018
1.196296E+018
1.124467E+018
1.020343E+018
9.880193E+017
9.250009E+017
9.1814E+017
8.488721E+017
7.428787E+017
7.23882E+017
6.369579E+017
6.073629E+017
5.655409E+017
4.198559E+017
3.786953E+017
3.204201E+017
2.48399E+017
1.958348E+017
1.365839E+017
1.168513E+017
1.869529E+017
2.993205E+017
3.637994E+017
4.358221E+017
4.998352E+017
5.580184E+017
6.9369E+017
7.388303E+017
7.58758E+017
8.731316E+017
8.898316E+017
9.544124E+017
9.48472E+017
1.033278E+018
1.113988E+018
1.142008E+018
1.201569E+018
1.283666E+018
1.243709E+018
1.366229E+018
1.428202E+018
1.391335E+018
1.495818E+018
1.587577E+018
1.621273E+018
1.588332E+018
1.718015E+018
1.654931E+018
1.786986E+018
1.726554E+018
1.723666E+018
1.743249E+018
1.737963E+018
1.765719E+018
1.790859E+018
1.836115E+018
1.87573E+018
1.870339E+018
1.817967E+018
1.868294E+018
1.931988E+018
1.80643E+018
1.875981E+018
1.904719E+018
1.838163E+018
1.801199E+018
1.849271E+018
1.774884E+018
1.708445E+018
1.756498E+018
1.663876E+018
1.725199E+018
1.708577E+018
1.61437E+018
1.572288E+018
1.509433E+018
1.429919E+018
1.39029E+018
1.329033E+018
1.369412E+018
1.281521E+018
1.221984E+018
1.163504E+018
1.118699E+018
1.099306E+018
1.029608E+018
9.430764E+017
8.937365E+017
7.461024E+017
7.301904E+017
6.939756E+017
6.298291E+017
5.489342E+017
4.634035E+017
4.269614E+017
3.479445E+017
2.854744E+017
2.167727E+017
1.202672E+017
1.155043E+017
1.968046E+017
2.77862E+017
3.648705E+017
4.714723E+017
4.733033E+017
5.97488E+017
6.642396E+017
7.523218E+017
8.039042E+017
9.026229E+017
9.111079E+017
1.048451E+018
1.015254E+018
1.114204E+018
1.124515E+018
1.127169E+018
1.208638E+018
1.274484E+018
1.360096E+018
1.391353E+018
1.533482E+018
1.542157E+018
1.578839E+018
1.575717E+018
1.628904E+018
1.693412E+018
1.776757E+018
1.880489E+018
1.832266E+018
1.761121E+018
1.787891E+018
1.841923E+018
1.862743E+018
1.825442E+018
1.871064E+018
1.887524E+018
1.919188E+018
2.002204E+018
1.964704E+018
1.989693E+018
2.047557E+018
1.901758E+018
1.892872E+018
1.915514E+018
1.866055E+018
1.917792E+018
1.825943E+018
1.827308E+018
1.807282E+018
1.824183E+018
1.759595E+018
1.746818E+018
1.730151E+018
1.590541E+018
1.604064E+018
1.610877E+018
1.468298E+018
1.466885E+018
1.383783E+018
1.40756E+018
1.37741E+018
1.300037E+018
1.254701E+018
1.210211E+018
1.049301E+018
1.065242E+018
1.00429E+018
8.734876E+017
8.019482E+017
7.85475E+017
6.866304E+017
6.502611E+017
5.650034E+017
4.522165E+017
3.873893E+017
3.254206E+017
2.749931E+017
1.917613E+017
1.334212E+017
1.411684E+017
2.231148E+017
2.957398E+017
3.979323E+017
4.629914E+017
5.368806E+017
6.720145E+017
6.735716E+017
7.971707E+017
8.340415E+017
8.758481E+017
9.556641E+017
9.73562E+017
1.062084E+018
1.077078E+018
1.233287E+018
1.271664E+018
1.274712E+018
1.32235E+018
1.438896E+018
1.448197E+018
1.537728E+018
1.59429E+018
1.591383E+018
1.64671E+018
1.718457E+018
1.740899E+018
1.76599E+018
1.881989E+018
1.917935E+018
1.854126E+018
1.844605E+018
1.922518E+018
1.935437E+018
1.937181E+018
1.987494E+018
1.997095E+018
1.999423E+018
2.03665E+018
1.99994E+018
2.040314E+018
2.015653E+018
2.077621E+018
2.040869E+018
1.947558E+018
1.947831E+018
1.967092E+018
1.930162E+018
1.933455E+018
1.925476E+018
1.931423E+018
1.790808E+018
1.758545E+018
1.769351E+018
1.751106E+018
1.719309E+018
1.584116E+018
1.503912E+018
1.51755E+018
1.499995E+018
1.42467E+018
1.411876E+018
1.323161E+018
1.301695E+018
1.232506E+018
1.170963E+018
1.056238E+018
1.046775E+018
9.637488E+017
8.793872E+017
7.916427E+017
7.471292E+017
6.200887E+017
5.700248E+017
5.025685E+017
3.929108E+017
3.475685E+017
3.222148E+017
2.308008E+017
1.177352E+017
1.151572E+017
1.894608E+017
3.170647E+017
3.837455E+017
4.749162E+017
6.236889E+017
6.130406E+017
7.23534E+017
7.653943E+017
8.323053E+017
9.187469E+017
1.027311E+018
1.036834E+018
1.095675E+018
1.204271E+018
1.29088E+018
1.322674E+018
1.376483E+018
1.355477E+018
1.497753E+018
1.505959E+018
1.481753E+018
1.666531E+018
1.774717E+018
1.630984E+018
1.820516E+018
1.844561E+018
1.846352E+018
1.831082E+018
1.952727E+018
1.927289E+018
2.027771E+018
2.053422E+018
2.001922E+018
2.005007E+018
1.962403E+018
2.075512E+018
2.013762E+018
2.033989E+018
2.004768E+018
2.043883E+018
2.032705E+018
2.079372E+018
2.081936E+018
1.947538E+018
2.037783E+018
2.005712E+018
1.933943E+018
1.982101E+018
1.942719E+018
1.951527E+018
1.79118E+018
1.90167E+018
1.710815E+018
1.749739E+018
1.6722E+018
1.685489E+018
1.662238E+018
1.531983E+018
1.547391E+018
1.589101E+018
1.409767E+018
1.351133E+018
1.320843E+018
1.217905E+018
1.235604E+018
1.14906E+018
1.012346E+018
9.316939E+017
8.963189E+017
7.935208E+017
7.53977E+017
6.037704E+017
6.071761E+017
5.597944E+017
4.71176E+017
4.285139E+017
3.113658E+017
2.272322E+017
1.233622E+017
1.215962E+017
2.256024E+017
2.868491E+017
4.186857E+017
4.479653E+017
5.651795E+017
6.412944E+017
6.993866E+017
8.576368E+017
8.647927E+017
9.811643E+017
1.054936E+018
1.103084E+018
1.171478E+018
1.25011E+018
1.35313E+018
1.323893E+018
1.353638E+018
1.46232E+018
1.557887E+018
1.575756E+018
1.621502E+018
1.676627E+018
1.735482E+018
1.778333E+018
1.820375E+018
1.787698E+018
1.857091E+018
1.926012E+018
1.963745E+018
2.031776E+018
2.095167E+018
2.056301E+018
2.074125E+018
2.043677E+018
2.012723E+018
2.074809E+018
2.045459E+018
2.12705E+018
2.082882E+018
2.113801E+018
2.136995E+018
2.11411E+018
2.176797E+018
2.103493E+018
2.12939E+018
2.127829E+018
2.080677E+018
2.021407E+018
2.006768E+018
2.016597E+018
1.909943E+018
1.920251E+018
1.818629E+018
1.81052E+018
1.710606E+018
1.710987E+018
1.627299E+018
1.614415E+018
1.589884E+018
1.556952E+018
1.487426E+018
1.388046E+018
1.33494E+018
1.202913E+018
1.207455E+018
1.171611E+018
1.094877E+018
9.912469E+017
8.947461E+017
8.529341E+017
7.834074E+017
6.773904E+017
5.932377E+017
5.257793E+017
4.399125E+017
4.03068E+017
3.309154E+017
2.304497E+017
1.164174E+017
1.209257E+017
2.18161E+017
3.109616E+017
4.095247E+017
4.94077E+017
5.197811E+017
6.563994E+017
7.331558E+017
8.490075E+017
9.040078E+017
1.015435E+018
1.064E+018
1.130487E+018
1.237368E+018
1.273138E+018
1.358824E+018
1.43801E+018
1.422367E+018
1.470038E+018
1.609409E+018
1.59745E+018
1.685557E+018
1.667583E+018
1.697206E+018
1.806775E+018
1.896212E+018
1.859442E+018
2.007294E+018
2.111646E+018
2.035601E+018
2.094049E+018
2.038721E+018
2.029954E+018
2.095043E+018
2.102396E+018
2.068414E+018
2.197297E+018
2.180804E+018
2.135225E+018
2.142004E+018
2.11626E+018
2.165602E+018
2.184884E+018
2.120845E+018
2.214609E+018
2.165292E+018
2.1383E+018
2.201839E+018
2.204612E+018
2.133589E+018
1.948427E+018
1.956292E+018
2.054856E+018
1.986465E+018
1.959349E+018
1.723963E+018
1.781701E+018
1.733674E+018
1.655245E+018
1.612408E+018
1.593221E+018
1.526551E+018
1.458314E+018
1.358435E+018
1.317451E+018
1.246209E+018
1.210341E+018
1.084457E+018
9.758599E+017
9.248137E+017
8.891953E+017
7.361722E+017
6.942234E+017
6.721894E+017
5.535111E+017
4.705755E+017
4.113765E+017
3.374787E+017
2.075922E+017
1.333719E+017
1.306239E+017
2.401377E+017
3.644208E+017
4.261565E+017
4.745902E+017
5.705233E+017
6.760916E+017
8.027942E+017
8.36811E+017
9.630794E+017
1.028067E+018
1.092513E+018
1.175773E+018
1.239133E+018
1.264308E+018
1.299417E+018
1.355448E+018
1.445883E+018
1.496008E+018
1.622445E+018
1.659798E+018
1.858306E+018
1.782373E+018
1.788171E+018
1.844305E+018
1.944984E+018
1.999173E+018
2.017004E+018
2.066983E+018
2.132244E+018
2.105137E+018
2.044914E+018
2.058866E+018
2.122652E+018
2.138385E+018
2.186946E+018
2.232515E+018
2.245626E+018
2.19031E+018
2.182921E+018
2.229759E+018
2.210724E+018
2.259753E+018
2.237882E+018
2.142316E+018
2.321732E+018
2.203748E+018
2.228076E+018
2.165908E+018
2.150162E+018
2.041032E+018
2.108755E+018
2.050521E+018
1.988186E+018
1.88521E+018
1.990573E+018
1.866211E+018
1.754185E+018
1.73822E+018
1.655907E+018
1.603465E+018
1.556377E+018
1.517448E+018
1.418448E+018
1.323125E+018
1.301964E+018
1.26091E+018
1.100906E+018
1.08571E+018
9.116457E+017
9.056664E+017
8.014724E+017
7.401258E+017
7.072623E+017
5.951161E+017
4.768761E+017
4.2552E+017
2.984088E+017
2.187228E+017
1.324279E+017
1.494756E+017
2.514701E+017
3.437815E+017
4.589173E+017
5.192004E+017
6.409387E+017
6.843982E+017
8.343891E+017
8.747069E+017
9.703311E+017
1.022689E+018
1.092465E+018
1.145326E+018
1.234238E+018
1.332494E+018
1.381282E+018
1.416378E+018
1.506455E+018
1.51888E+018
1.672675E+018
1.751772E+018
1.803539E+018
1.909214E+018
1.837919E+018
1.933759E+018
2.01175E+018
2.100968E+018
2.036071E+018
2.147712E+018
2.206052E+018
2.115137E+018
2.160446E+018
2.093777E+018
2.194504E+018
2.258075E+018
2.292655E+018
2.267557E+018
2.220673E+018
2.286385E+018
2.316433E+018
2.321089E+018
2.286818E+018
2.398137E+018
2.335972E+018
2.313395E+018
2.317982E+018
2.315355E+018
2.271031E+018
2.128648E+018
2.225781E+018
2.125257E+018
2.073479E+018
2.065874E+018
2.008863E+018
1.984078E+018
1.953893E+018
1.967477E+018
1.842595E+018
1.762215E+018
1.653464E+018
1.671743E+018
1.617527E+018
1.581579E+018
1.439541E+018
1.372636E+018
1.332142E+018
1.236995E+018
1.154558E+018
1.113016E+018
1.018673E+018
9.40642E+017
9.087192E+017
7.965842E+017
6.180364E+017
6.370969E+017
5.271863E+017
4.211117E+017
3.320998E+017
2.437882E+017
1.52094E+017
1.46113E+017
2.650772E+017
3.256307E+017
4.370239E+017
5.530034E+017
6.143966E+017
6.998154E+017
8.077415E+017
8.855826E+017
1.00687E+018
1.058529E+018
1.109745E+018
1.163272E+018
1.215647E+018
1.294486E+018
1.463859E+018
1.470912E+018
1.518843E+018
1.595961E+018
1.61775E+018