/*--------------------------------*- C++ -*----------------------------------*\
| =========                 |                                                 |
| \\      /  F ield         | OpenFOAM: The Open Source CFD Toolbox           |
|  \\    /   O peration     | Version:  v1806                                 |
|   \\  /    A nd           | Web:      www.OpenFOAM.com                      |
|    \\/     M anipulation  |                                                 |
\*---------------------------------------------------------------------------*/
FoamFile
{
    version     2.0;
    format      ascii;
    class       volScalarField;
    object      dnp5;
}
// * * * * * * * * * * * * * * * * * * * * * * * * * * * * * * * * * * * * * //

dimensions      [0 -3 0 0 0 0 0];

internalField   nonuniform List<scalar> 
6400
(
8719876000000000
1.30E+16
2.05E+16
2.88E+16
2.98E+16
2.93E+16
3.59E+16
4.69E+16
5.23E+16
4.90E+16
4.11E+16
5.60E+16
6.16E+16
6.02E+16
5.96E+16
8.90E+16
8.23E+16
7.43E+16
6.91E+16
8.83E+16
9.08E+16
1.04E+17
9.72E+16
9.89E+16
1.00E+17
1.08E+17
1.07E+17
1.28E+17
1.17E+17
1.12E+17
1.13E+17
1.24E+17
1.13E+17
1.18E+17
1.27E+17
1.19E+17
1.13E+17
1.04E+17
1.19E+17
1.19E+17
1.06E+17
1.13E+17
1.11E+17
1.23E+17
1.22E+17
1.10E+17
1.19E+17
1.15E+17
1.12E+17
1.26E+17
1.15E+17
1.24E+17
1.14E+17
1.03E+17
9.21E+16
8.59E+16
8.76E+16
8.02E+16
9.34E+16
8.63E+16
8.53E+16
8.63E+16
8.20E+16
7.73E+16
7.72E+16
6.53E+16
5.87E+16
6.89E+16
4.96E+16
4.72E+16
4.25E+16
4.53E+16
4.00E+16
4.16E+16
3.62E+16
3.23E+16
2.25E+16
1.48E+16
1.36E+16
6134720000000000
1.55E+16
2.51E+16
2.51E+16
3.63E+16
4.92E+16
4.97E+16
5.87E+16
7.43E+16
8.60E+16
8.42E+16
8.95E+16
9.48E+16
1.16E+17
1.01E+17
1.13E+17
1.32E+17
1.35E+17
1.37E+17
1.40E+17
1.52E+17
1.55E+17
1.77E+17
1.65E+17
1.50E+17
1.53E+17
1.51E+17
1.73E+17
1.84E+17
1.80E+17
1.81E+17
1.88E+17
1.88E+17
2.03E+17
1.79E+17
2.03E+17
1.84E+17
1.76E+17
1.77E+17
1.82E+17
2.00E+17
2.25E+17
1.94E+17
1.80E+17
1.98E+17
1.90E+17
1.98E+17
2.21E+17
2.14E+17
1.92E+17
1.91E+17
2.05E+17
1.91E+17
1.71E+17
1.78E+17
1.70E+17
1.76E+17
1.46E+17
1.53E+17
1.41E+17
1.50E+17
1.37E+17
1.44E+17
1.30E+17
1.37E+17
1.40E+17
1.04E+17
1.16E+17
1.22E+17
1.05E+17
8.80E+16
8.31E+16
7.26E+16
8.44E+16
5.60E+16
5.78E+16
4.36E+16
4.06E+16
3.47E+16
2.25E+16
1.46E+16
1.58E+16
3.07E+16
4.90E+16
5.06E+16
7.76E+16
8.01E+16
8.17E+16
9.95E+16
1.08E+17
1.27E+17
1.25E+17
1.45E+17
1.30E+17
1.58E+17
1.53E+17
1.38E+17
1.46E+17
1.76E+17
1.96E+17
1.76E+17
2.07E+17
2.23E+17
2.14E+17
2.44E+17
2.30E+17
2.20E+17
2.28E+17
2.35E+17
2.17E+17
2.53E+17
2.38E+17
2.54E+17
2.51E+17
2.65E+17
2.66E+17
2.77E+17
2.54E+17
2.54E+17
2.68E+17
2.79E+17
2.70E+17
2.60E+17
2.91E+17
2.79E+17
2.80E+17
2.75E+17
2.82E+17
2.71E+17
2.61E+17
2.73E+17
2.53E+17
2.42E+17
2.61E+17
2.48E+17
2.29E+17
2.29E+17
2.33E+17
2.01E+17
1.80E+17
1.92E+17
2.02E+17
2.01E+17
2.18E+17
1.93E+17
1.79E+17
1.82E+17
1.53E+17
1.37E+17
1.38E+17
1.20E+17
1.11E+17
1.14E+17
1.03E+17
9.20E+16
7.54E+16
5.36E+16
4.46E+16
3.64E+16
2.79E+16
1.69E+16
2.08E+16
4.13E+16
5.53E+16
7.68E+16
8.43E+16
9.29E+16
1.15E+17
1.36E+17
1.55E+17
1.56E+17
1.58E+17
1.57E+17
1.57E+17
1.89E+17
1.88E+17
2.09E+17
2.08E+17
2.20E+17
2.35E+17
2.73E+17
2.74E+17
3.01E+17
2.90E+17
2.84E+17
3.00E+17
3.04E+17
3.01E+17
3.24E+17
3.18E+17
3.17E+17
3.09E+17
3.15E+17
3.19E+17
3.22E+17
3.52E+17
3.35E+17
3.22E+17
3.47E+17
3.64E+17
3.42E+17
3.63E+17
3.51E+17
3.43E+17
3.68E+17
3.53E+17
3.59E+17
3.28E+17
3.56E+17
3.38E+17
3.43E+17
3.00E+17
3.36E+17
3.30E+17
3.00E+17
2.90E+17
2.83E+17
2.48E+17
2.78E+17
2.69E+17
2.39E+17
2.22E+17
2.36E+17
2.33E+17
2.35E+17
2.16E+17
2.18E+17
1.87E+17
1.72E+17
1.49E+17
1.31E+17
1.52E+17
1.29E+17
1.16E+17
1.06E+17
8.01E+16
7.29E+16
6.81E+16
5.18E+16
3.91E+16
2.10E+16
2.22E+16
3.93E+16
7.52E+16
8.82E+16
9.43E+16
9.81E+16
1.40E+17
1.28E+17
1.52E+17
1.70E+17
1.94E+17
1.83E+17
2.26E+17
2.31E+17
2.45E+17
2.56E+17
2.73E+17
2.71E+17
3.02E+17
3.04E+17
3.29E+17
3.31E+17
3.51E+17
3.62E+17
3.31E+17
3.80E+17
3.71E+17
3.89E+17
3.57E+17
3.81E+17
3.99E+17
3.94E+17
4.23E+17
3.99E+17
4.17E+17
4.23E+17
4.12E+17
4.33E+17
4.30E+17
4.52E+17
3.93E+17
4.01E+17
4.04E+17
4.07E+17
4.28E+17
4.13E+17
4.06E+17
4.07E+17
4.17E+17
4.09E+17
4.09E+17
3.64E+17
3.55E+17
3.54E+17
3.67E+17
3.38E+17
3.20E+17
3.20E+17
3.14E+17
3.32E+17
2.60E+17
2.78E+17
2.89E+17
2.77E+17
2.67E+17
2.42E+17
2.17E+17
2.07E+17
1.77E+17
1.62E+17
1.50E+17
1.65E+17
1.36E+17
1.23E+17
1.25E+17
8.04E+16
8.05E+16
5.49E+16
4.37E+16
3.50E+16
2.62E+16
5.12E+16
5.40E+16
9.06E+16
1.04E+17
1.14E+17
1.50E+17
1.53E+17
1.94E+17
2.48E+17
2.42E+17
2.51E+17
2.70E+17
2.83E+17
2.96E+17
3.06E+17
3.18E+17
3.53E+17
3.45E+17
3.77E+17
3.84E+17
3.92E+17
3.84E+17
4.27E+17
3.84E+17
4.05E+17
4.48E+17
4.39E+17
4.62E+17
4.70E+17
4.50E+17
4.78E+17
4.58E+17
4.90E+17
4.89E+17
5.00E+17
5.19E+17
5.02E+17
4.91E+17
4.86E+17
4.82E+17
4.91E+17
5.12E+17
4.68E+17
5.17E+17
4.88E+17
4.99E+17
5.16E+17
4.95E+17
4.80E+17
4.49E+17
4.45E+17
4.48E+17
3.90E+17
4.28E+17
3.77E+17
4.27E+17
3.92E+17
3.75E+17
3.43E+17
3.27E+17
3.28E+17
3.30E+17
3.46E+17
3.00E+17
2.97E+17
2.66E+17
2.43E+17
2.55E+17
2.25E+17
1.96E+17
1.70E+17
1.59E+17
1.45E+17
1.38E+17
9.74E+16
8.29E+16
6.84E+16
4.66E+16
2.75E+16
2.69E+16
4.75E+16
7.62E+16
9.60E+16
1.20E+17
1.37E+17
1.83E+17
1.98E+17
2.24E+17
2.54E+17
2.63E+17
2.84E+17
3.18E+17
3.28E+17
3.44E+17
3.59E+17
3.37E+17
3.64E+17
4.11E+17
4.16E+17
4.14E+17
4.47E+17
4.33E+17
4.56E+17
4.67E+17
4.93E+17
4.70E+17
5.39E+17
5.24E+17
5.15E+17
5.45E+17
5.65E+17
5.31E+17
5.52E+17
5.64E+17
5.39E+17
6.07E+17
6.19E+17
5.73E+17
5.55E+17
6.17E+17
5.73E+17
5.65E+17
5.67E+17
5.75E+17
5.93E+17
5.47E+17
5.39E+17
5.91E+17
5.51E+17
5.13E+17
4.99E+17
4.87E+17
5.08E+17
4.61E+17
4.70E+17
4.38E+17
4.40E+17
4.27E+17
4.20E+17
4.13E+17
3.72E+17
3.85E+17
3.32E+17
3.40E+17
3.27E+17
3.16E+17
3.13E+17
2.58E+17
2.36E+17
2.24E+17
1.88E+17
1.68E+17
1.78E+17
1.47E+17
1.12E+17
8.25E+16
8.28E+16
5.39E+16
3.28E+16
3.80E+16
5.35E+16
9.27E+16
1.10E+17
1.33E+17
1.85E+17
1.87E+17
2.23E+17
2.32E+17
2.66E+17
2.87E+17
3.23E+17
3.19E+17
3.60E+17
3.74E+17
3.63E+17
3.76E+17
4.08E+17
4.58E+17
4.82E+17
4.65E+17
5.08E+17
4.84E+17
4.89E+17
4.81E+17
5.75E+17
5.05E+17
5.52E+17
5.55E+17
5.75E+17
5.69E+17
6.64E+17
6.32E+17
6.34E+17
6.16E+17
6.38E+17
6.25E+17
6.59E+17
6.59E+17
6.58E+17
6.59E+17
6.46E+17
6.20E+17
6.48E+17
6.43E+17
6.35E+17
6.36E+17
6.18E+17
6.26E+17
6.26E+17
5.89E+17
5.88E+17
5.90E+17
5.82E+17
5.32E+17
5.36E+17
5.43E+17
4.90E+17
4.71E+17
4.81E+17
4.62E+17
4.64E+17
4.20E+17
4.00E+17
3.67E+17
3.49E+17
3.40E+17
3.31E+17
2.70E+17
3.03E+17
2.74E+17
2.30E+17
2.01E+17
1.80E+17
1.64E+17
1.42E+17
1.02E+17
7.09E+16
6.19E+16
3.44E+16
4.10E+16
6.54E+16
1.07E+17
1.17E+17
1.50E+17
1.79E+17
1.99E+17
2.24E+17
2.95E+17
3.00E+17
3.24E+17
3.26E+17
3.58E+17
4.01E+17
4.19E+17
4.01E+17
4.27E+17
4.53E+17
5.02E+17
5.02E+17
4.88E+17
5.16E+17
5.31E+17
5.22E+17
5.70E+17
6.29E+17
5.98E+17
6.07E+17
6.24E+17
6.72E+17
6.46E+17
6.86E+17
6.89E+17
6.93E+17
6.75E+17
6.49E+17
6.85E+17
7.14E+17
6.63E+17
7.18E+17
7.30E+17
7.21E+17
6.70E+17
7.06E+17
7.33E+17
6.96E+17
6.79E+17
7.02E+17
6.60E+17
6.50E+17
6.75E+17
6.83E+17
6.29E+17
6.15E+17
6.06E+17
5.65E+17
5.63E+17
5.80E+17
5.33E+17
5.41E+17
5.02E+17
4.71E+17
4.47E+17
4.41E+17
4.23E+17
4.02E+17
3.65E+17
3.47E+17
3.39E+17
3.07E+17
3.08E+17
2.64E+17
2.31E+17
2.07E+17
1.71E+17
1.53E+17
1.23E+17
8.86E+16
6.41E+16
4.18E+16
4.90E+16
7.72E+16
9.81E+16
1.21E+17
1.64E+17
1.91E+17
2.16E+17
2.89E+17
3.27E+17
3.18E+17
3.44E+17
3.48E+17
4.30E+17
4.30E+17
4.74E+17
4.56E+17
4.89E+17
5.40E+17
5.35E+17
5.47E+17
5.51E+17
5.75E+17
6.36E+17
6.27E+17
6.28E+17
6.38E+17
6.83E+17
7.06E+17
7.16E+17
7.61E+17
7.67E+17
7.61E+17
7.33E+17
7.55E+17
7.35E+17
7.29E+17
7.26E+17
7.57E+17
7.70E+17
7.62E+17
7.80E+17
7.83E+17
7.58E+17
7.85E+17
7.44E+17
7.13E+17
7.88E+17
7.72E+17
7.16E+17
7.14E+17
7.37E+17
6.93E+17
6.50E+17
6.85E+17
6.98E+17
6.70E+17
6.20E+17
5.72E+17
5.79E+17
5.84E+17
5.29E+17
5.06E+17
5.13E+17
5.01E+17
4.74E+17
4.58E+17
4.52E+17
4.49E+17
3.62E+17
3.59E+17
3.11E+17
3.12E+17
2.69E+17
2.19E+17
1.80E+17
1.63E+17
1.26E+17
1.05E+17
8.72E+16
4.62E+16
5.16E+16
8.86E+16
1.17E+17
1.41E+17
2.01E+17
2.39E+17
2.34E+17
2.78E+17
3.22E+17
3.33E+17
3.95E+17
4.41E+17
4.20E+17
4.71E+17
4.94E+17
5.04E+17
4.87E+17
5.49E+17
5.53E+17
6.01E+17
6.03E+17
6.22E+17
6.71E+17
7.27E+17
7.02E+17
7.26E+17
7.54E+17
7.30E+17
7.53E+17
7.99E+17
8.28E+17
8.09E+17
8.03E+17
8.15E+17
8.22E+17
8.50E+17
8.18E+17
8.35E+17
7.90E+17
8.20E+17
8.65E+17
8.38E+17
8.38E+17
8.09E+17
8.24E+17
7.99E+17
7.85E+17
8.05E+17
7.75E+17
8.04E+17
7.77E+17
7.68E+17
7.14E+17
7.27E+17
7.43E+17
7.22E+17
6.94E+17
6.29E+17
6.39E+17
6.70E+17
6.14E+17
6.03E+17
5.37E+17
5.65E+17
5.19E+17
4.84E+17
4.65E+17
4.49E+17
3.80E+17
3.78E+17
3.51E+17
3.25E+17
2.71E+17
2.32E+17
2.31E+17
1.74E+17
1.37E+17
1.14E+17
8.74E+16
5.51E+16
4.80E+16
1.01E+17
1.22E+17
1.83E+17
2.12E+17
2.47E+17
2.94E+17
2.90E+17
3.24E+17
3.61E+17
4.04E+17
4.43E+17
4.76E+17
4.96E+17
5.52E+17
5.45E+17
5.39E+17
5.67E+17
5.77E+17
5.75E+17
6.57E+17
7.05E+17
7.01E+17
7.27E+17
7.52E+17
7.41E+17
8.05E+17
7.81E+17
8.28E+17
8.30E+17
8.54E+17
8.47E+17
8.52E+17
8.72E+17
8.77E+17
8.76E+17
9.19E+17
9.13E+17
8.91E+17
8.87E+17
9.35E+17
8.82E+17
9.00E+17
8.91E+17
8.71E+17
8.73E+17
8.80E+17
8.84E+17
8.42E+17
9.05E+17
9.00E+17
7.98E+17
7.63E+17
7.64E+17
7.78E+17
7.61E+17
7.39E+17
7.37E+17
6.85E+17
6.88E+17
6.49E+17
6.23E+17
5.86E+17
5.37E+17
5.66E+17
5.08E+17
4.71E+17
4.54E+17
4.36E+17
3.54E+17
3.61E+17
3.15E+17
2.79E+17
2.49E+17
2.14E+17
2.02E+17
1.45E+17
1.38E+17
9.42E+16
4.50E+16
5.57E+16
1.03E+17
1.45E+17
1.77E+17
2.23E+17
2.73E+17
2.88E+17
2.98E+17
3.72E+17
4.23E+17
4.38E+17
4.52E+17
4.95E+17
5.98E+17
5.48E+17
6.08E+17
6.54E+17
6.09E+17
6.18E+17
6.47E+17
6.90E+17
7.43E+17
7.84E+17
7.51E+17
7.81E+17
8.17E+17
8.12E+17
8.92E+17
9.02E+17
9.20E+17
9.07E+17
9.61E+17
9.30E+17
9.35E+17
9.86E+17
9.45E+17
9.40E+17
9.50E+17
9.70E+17
9.91E+17
9.75E+17
9.82E+17
9.66E+17
9.78E+17
9.51E+17
8.99E+17
9.22E+17
8.84E+17
9.19E+17
8.82E+17
9.24E+17
8.41E+17
8.31E+17
8.43E+17
8.35E+17
8.27E+17
8.18E+17
7.58E+17
6.96E+17
7.16E+17
6.80E+17
6.56E+17
6.53E+17
6.03E+17
5.64E+17
5.39E+17
5.03E+17
4.60E+17
4.36E+17
4.25E+17
3.73E+17
3.25E+17
3.06E+17
2.69E+17
2.45E+17
2.16E+17
1.61E+17
1.15E+17
9.03E+16
5.85E+16
5.93E+16
1.05E+17
1.51E+17
1.78E+17
2.26E+17
2.75E+17
3.26E+17
3.46E+17
3.88E+17
3.86E+17
4.71E+17
4.71E+17
5.50E+17
5.81E+17
5.90E+17
6.63E+17
6.83E+17
7.09E+17
7.02E+17
7.27E+17
7.79E+17
7.57E+17
8.21E+17
8.30E+17
8.74E+17
8.80E+17
9.32E+17
9.64E+17
9.34E+17
9.97E+17
1.00E+18
9.83E+17
9.51E+17
1.05E+18
1.02E+18
1.07E+18
9.99E+17
1.01E+18
1.00E+18
1.04E+18
1.02E+18
9.89E+17
1.03E+18
1.07E+18
1.02E+18
9.90E+17
1.00E+18
9.86E+17
9.59E+17
1.00E+18
9.79E+17
8.71E+17
9.66E+17
8.86E+17
9.07E+17
8.82E+17
8.64E+17
8.06E+17
8.00E+17
7.65E+17
7.73E+17
7.06E+17
6.91E+17
6.68E+17
6.17E+17
5.42E+17
5.20E+17
5.09E+17
5.11E+17
4.48E+17
3.81E+17
3.47E+17
2.91E+17
2.86E+17
2.48E+17
2.26E+17
1.83E+17
1.62E+17
9.94E+16
6.64E+16
7.49E+16
1.09E+17
1.60E+17
1.97E+17
2.31E+17
2.92E+17
3.29E+17
3.50E+17
4.22E+17
4.40E+17
4.69E+17
5.26E+17
5.46E+17
5.99E+17
6.27E+17
6.97E+17
7.56E+17
7.16E+17
7.40E+17
7.36E+17
8.14E+17
8.09E+17
8.61E+17
9.01E+17
9.38E+17
9.16E+17
9.69E+17
1.03E+18
1.02E+18
9.92E+17
1.03E+18
1.07E+18
1.07E+18
1.08E+18
1.05E+18
1.05E+18
1.10E+18
1.05E+18
1.09E+18
1.08E+18
1.04E+18
1.06E+18
1.04E+18
1.06E+18
1.08E+18
1.05E+18
1.04E+18
1.03E+18
1.10E+18
1.07E+18
9.85E+17
1.03E+18
1.02E+18
9.62E+17
9.33E+17
8.81E+17
8.72E+17
8.43E+17
8.61E+17
8.34E+17
7.87E+17
7.89E+17
7.14E+17
6.67E+17
6.42E+17
5.87E+17
5.68E+17
5.30E+17
5.16E+17
4.46E+17
4.23E+17
4.06E+17
3.69E+17
3.19E+17
2.73E+17
2.38E+17
2.26E+17
1.46E+17
1.14E+17
6.98E+16
7.17E+16
1.09E+17
1.67E+17
2.28E+17
2.41E+17
2.86E+17
3.21E+17
3.82E+17
4.49E+17
4.49E+17
5.06E+17
5.67E+17
5.89E+17
6.32E+17
6.55E+17
6.77E+17
6.93E+17
7.53E+17
7.67E+17
8.78E+17
8.43E+17
9.08E+17
9.03E+17
9.12E+17
9.63E+17
9.64E+17
1.06E+18
1.03E+18
1.01E+18
1.05E+18
1.12E+18
1.07E+18
1.13E+18
1.15E+18
1.09E+18
1.09E+18
1.11E+18
1.13E+18
1.12E+18
1.17E+18
1.17E+18
1.15E+18
1.15E+18
1.16E+18
1.20E+18
1.13E+18
1.12E+18
1.10E+18
1.15E+18
1.08E+18
1.06E+18
1.08E+18
1.04E+18
1.04E+18
9.72E+17
9.92E+17
9.23E+17
9.09E+17
9.08E+17
9.51E+17
8.38E+17
7.88E+17
7.18E+17
7.32E+17
6.69E+17
7.08E+17
5.92E+17
5.67E+17
5.26E+17
4.86E+17
4.79E+17
4.04E+17
3.63E+17
2.96E+17
2.58E+17
2.46E+17
2.23E+17
1.50E+17
1.05E+17
6.40E+16
8.63E+16
1.12E+17
1.65E+17
2.28E+17
2.95E+17
3.24E+17
3.69E+17
4.19E+17
4.56E+17
4.64E+17
5.57E+17
5.88E+17
6.22E+17
6.41E+17
6.58E+17
7.11E+17
7.59E+17
7.78E+17
8.23E+17
8.70E+17
8.91E+17
9.23E+17
9.89E+17
9.75E+17
1.01E+18
1.07E+18
1.11E+18
1.13E+18
1.10E+18
1.12E+18
1.15E+18
1.11E+18
1.17E+18
1.19E+18
1.23E+18
1.17E+18
1.18E+18
1.23E+18
1.21E+18
1.20E+18
1.21E+18
1.24E+18
1.19E+18
1.22E+18
1.27E+18
1.25E+18
1.21E+18
1.21E+18
1.17E+18
1.20E+18
1.09E+18
1.13E+18
1.11E+18
1.03E+18
1.04E+18
1.04E+18
1.03E+18
9.43E+17
9.10E+17
8.87E+17
8.83E+17
8.20E+17
8.22E+17
7.95E+17
7.39E+17
6.86E+17
6.21E+17
5.88E+17
5.78E+17
4.89E+17
4.94E+17
4.62E+17
3.93E+17
3.52E+17
2.94E+17
2.60E+17
2.40E+17
1.70E+17
1.22E+17
8.28E+16
8.37E+16
1.23E+17
1.87E+17
2.29E+17
2.70E+17
3.26E+17
3.57E+17
4.44E+17
4.54E+17
5.07E+17
5.83E+17
6.31E+17
6.16E+17
6.50E+17
6.77E+17
7.83E+17
8.04E+17
7.96E+17
8.51E+17
8.54E+17
9.45E+17
1.02E+18
1.04E+18
1.00E+18
1.06E+18
1.11E+18
1.09E+18
1.11E+18
1.17E+18
1.18E+18
1.23E+18
1.23E+18
1.21E+18
1.22E+18
1.27E+18
1.32E+18
1.29E+18
1.28E+18
1.28E+18
1.26E+18
1.29E+18
1.25E+18
1.28E+18
1.30E+18
1.28E+18
1.27E+18
1.26E+18
1.22E+18
1.22E+18
1.17E+18
1.20E+18
1.11E+18
1.13E+18
1.11E+18
1.15E+18
1.12E+18
1.08E+18
9.81E+17
9.38E+17
9.25E+17
9.34E+17
8.81E+17
8.49E+17
7.98E+17
7.24E+17
7.01E+17
6.56E+17
6.52E+17
6.02E+17
5.27E+17
5.14E+17
4.52E+17
4.31E+17
4.01E+17
2.98E+17
2.69E+17
2.27E+17
1.76E+17
1.39E+17
9.69E+16
8.29E+16
1.33E+17
2.12E+17
2.58E+17
3.09E+17
3.55E+17
3.96E+17
4.92E+17
5.24E+17
5.38E+17
6.20E+17
6.32E+17
6.77E+17
6.73E+17
7.33E+17
7.91E+17
8.11E+17
8.53E+17
9.11E+17
8.83E+17
9.70E+17
1.01E+18
9.87E+17
1.06E+18
1.13E+18
1.15E+18
1.13E+18
1.22E+18
1.17E+18
1.27E+18
1.23E+18
1.22E+18
1.24E+18
1.23E+18
1.25E+18
1.27E+18
1.30E+18
1.33E+18
1.33E+18
1.29E+18
1.33E+18
1.37E+18
1.28E+18
1.33E+18
1.35E+18
1.30E+18
1.28E+18
1.31E+18
1.26E+18
1.21E+18
1.25E+18
1.18E+18
1.22E+18
1.21E+18
1.15E+18
1.12E+18
1.07E+18
1.01E+18
9.87E+17
9.43E+17
9.72E+17
9.10E+17
8.67E+17
8.26E+17
7.94E+17
7.80E+17
7.31E+17
6.69E+17
6.34E+17
5.29E+17
5.18E+17
4.92E+17
4.47E+17
3.90E+17
3.29E+17
3.03E+17
2.47E+17
2.03E+17
1.54E+17
8.53E+16
8.20E+16
1.40E+17
1.97E+17
2.59E+17
3.35E+17
3.36E+17
4.24E+17
4.71E+17
5.34E+17
5.71E+17
6.41E+17
6.47E+17
7.44E+17
7.20E+17
7.91E+17
7.98E+17
8.00E+17
8.58E+17
9.04E+17
9.65E+17
9.87E+17
1.09E+18
1.09E+18
1.12E+18
1.12E+18
1.16E+18
1.20E+18
1.26E+18
1.33E+18
1.30E+18
1.25E+18
1.27E+18
1.31E+18
1.32E+18
1.30E+18
1.33E+18
1.34E+18
1.36E+18
1.42E+18
1.39E+18
1.41E+18
1.45E+18
1.35E+18
1.34E+18
1.36E+18
1.32E+18
1.36E+18
1.30E+18
1.30E+18
1.28E+18
1.29E+18
1.25E+18
1.24E+18
1.23E+18
1.13E+18
1.14E+18
1.14E+18
1.04E+18
1.04E+18
9.82E+17
9.99E+17
9.78E+17
9.23E+17
8.90E+17
8.59E+17
7.45E+17
7.56E+17
7.13E+17
6.20E+17
5.69E+17
5.57E+17
4.87E+17
4.62E+17
4.01E+17
3.21E+17
2.75E+17
2.31E+17
1.95E+17
1.36E+17
9.47E+16
1.00E+17
1.58E+17
2.10E+17
2.82E+17
3.29E+17
3.81E+17
4.77E+17
4.78E+17
5.66E+17
5.92E+17
6.22E+17
6.78E+17
6.91E+17
7.54E+17
7.64E+17
8.75E+17
9.02E+17
9.05E+17
9.38E+17
1.02E+18
1.03E+18
1.09E+18
1.13E+18
1.13E+18
1.17E+18
1.22E+18
1.24E+18
1.25E+18
1.34E+18
1.36E+18
1.32E+18
1.31E+18
1.36E+18
1.37E+18
1.37E+18
1.41E+18
1.42E+18
1.42E+18
1.45E+18
1.42E+18
1.45E+18
1.43E+18
1.47E+18
1.45E+18
1.38E+18
1.38E+18
1.40E+18
1.37E+18
1.37E+18
1.37E+18
1.37E+18
1.27E+18
1.25E+18
1.26E+18
1.24E+18
1.22E+18
1.12E+18
1.07E+18
1.08E+18
1.06E+18
1.01E+18
1.00E+18
9.39E+17
9.24E+17
8.75E+17
8.31E+17
7.50E+17
7.43E+17
6.84E+17
6.24E+17
5.62E+17
5.30E+17
4.40E+17
4.05E+17
3.57E+17
2.79E+17
2.47E+17
2.29E+17
1.64E+17
8.36E+16
8.17E+16
1.34E+17
2.25E+17
2.72E+17
3.37E+17
4.43E+17
4.35E+17
5.13E+17
5.43E+17
5.91E+17
6.52E+17
7.29E+17
7.36E+17
7.78E+17
8.55E+17
9.16E+17
9.39E+17
9.77E+17
9.62E+17
1.06E+18
1.07E+18
1.05E+18
1.18E+18
1.26E+18
1.16E+18
1.29E+18
1.31E+18
1.31E+18
1.30E+18
1.39E+18
1.37E+18
1.44E+18
1.46E+18
1.42E+18
1.42E+18
1.39E+18
1.47E+18
1.43E+18
1.44E+18
1.42E+18
1.45E+18
1.44E+18
1.48E+18
1.48E+18
1.38E+18
1.45E+18
1.42E+18
1.37E+18
1.41E+18
1.38E+18
1.38E+18
1.27E+18
1.35E+18
1.21E+18
1.24E+18
1.19E+18
1.20E+18
1.18E+18
1.09E+18
1.10E+18
1.13E+18
1.00E+18
9.59E+17
9.37E+17
8.64E+17
8.77E+17
8.15E+17
7.18E+17
6.61E+17
6.36E+17
5.63E+17
5.35E+17
4.28E+17
4.31E+17
3.97E+17
3.34E+17
3.04E+17
2.21E+17
1.61E+17
8.75E+16
8.63E+16
1.60E+17
2.04E+17
2.97E+17
3.18E+17
4.01E+17
4.55E+17
4.96E+17
6.09E+17
6.14E+17
6.96E+17
7.49E+17
7.83E+17
8.31E+17
8.87E+17
9.60E+17
9.40E+17
9.61E+17
1.04E+18
1.11E+18
1.12E+18
1.15E+18
1.19E+18
1.23E+18
1.26E+18
1.29E+18
1.27E+18
1.32E+18
1.37E+18
1.39E+18
1.44E+18
1.49E+18
1.46E+18
1.47E+18
1.45E+18
1.43E+18
1.47E+18
1.45E+18
1.51E+18
1.48E+18
1.50E+18
1.52E+18
1.50E+18
1.54E+18
1.49E+18
1.51E+18
1.51E+18
1.48E+18
1.43E+18
1.42E+18
1.43E+18
1.36E+18
1.36E+18
1.29E+18
1.28E+18
1.21E+18
1.21E+18
1.15E+18
1.15E+18
1.13E+18
1.10E+18
1.06E+18
9.85E+17
9.47E+17
8.54E+17
8.57E+17
8.31E+17
7.77E+17
7.03E+17
6.35E+17
6.05E+17
5.56E+17
4.81E+17
4.21E+17
3.73E+17
3.12E+17
2.86E+17
2.35E+17
1.64E+17
8.26E+16
8.58E+16
1.55E+17
2.21E+17
2.91E+17
3.51E+17
3.69E+17
4.66E+17
5.20E+17
6.03E+17
6.42E+17
7.21E+17
7.55E+17
8.02E+17
8.78E+17
9.04E+17
9.64E+17
1.02E+18
1.01E+18
1.04E+18
1.14E+18
1.13E+18
1.20E+18
1.18E+18
1.20E+18
1.28E+18
1.35E+18
1.32E+18
1.42E+18
1.50E+18
1.44E+18
1.49E+18
1.45E+18
1.44E+18
1.49E+18
1.49E+18
1.47E+18
1.56E+18
1.55E+18
1.52E+18
1.52E+18
1.50E+18
1.54E+18
1.55E+18
1.51E+18
1.57E+18
1.54E+18
1.52E+18
1.56E+18
1.56E+18
1.51E+18
1.38E+18
1.39E+18
1.46E+18
1.41E+18
1.39E+18
1.22E+18
1.26E+18
1.23E+18
1.17E+18
1.14E+18
1.13E+18
1.08E+18
1.03E+18
9.64E+17
9.35E+17
8.84E+17
8.59E+17
7.70E+17
6.93E+17
6.56E+17
6.31E+17
5.22E+17
4.93E+17
4.77E+17
3.93E+17
3.34E+17
2.92E+17
2.39E+17
1.47E+17
9.47E+16
9.27E+16
1.70E+17
2.59E+17
3.02E+17
3.37E+17
4.05E+17
4.80E+17
5.70E+17
5.94E+17
6.83E+17
7.30E+17
7.75E+17
8.34E+17
8.79E+17
8.97E+17
9.22E+17
9.62E+17
1.03E+18
1.06E+18
1.15E+18
1.18E+18
1.32E+18
1.26E+18
1.27E+18
1.31E+18
1.38E+18
1.42E+18
1.43E+18
1.47E+18
1.51E+18
1.49E+18
1.45E+18
1.46E+18
1.51E+18
1.52E+18
1.55E+18
1.58E+18
1.59E+18
1.55E+18
1.55E+18
1.58E+18
1.57E+18
1.60E+18
1.59E+18
1.52E+18
1.65E+18
1.56E+18
1.58E+18
1.54E+18
1.53E+18
1.45E+18
1.50E+18
1.46E+18
1.41E+18
1.34E+18
1.41E+18
1.32E+18
1.24E+18
1.23E+18
1.18E+18
1.14E+18
1.10E+18
1.08E+18
1.01E+18
9.39E+17
9.24E+17
8.95E+17
7.81E+17
7.71E+17
6.47E+17
6.43E+17
5.69E+17
5.25E+17
5.02E+17
4.22E+17
3.38E+17
3.02E+17
2.12E+17
1.55E+17
9.40E+16
1.06E+17
1.78E+17
2.44E+17
3.26E+17
3.68E+17
4.55E+17
4.86E+17
5.92E+17
6.21E+17
6.89E+17
7.26E+17
7.75E+17
8.13E+17
8.76E+17
9.46E+17
9.80E+17
1.01E+18
1.07E+18
1.08E+18
1.19E+18
1.24E+18
1.28E+18
1.35E+18
1.30E+18
1.37E+18
1.43E+18
1.49E+18
1.44E+18
1.52E+18
1.57E+18
1.50E+18
1.53E+18
1.49E+18
1.56E+18
1.60E+18
1.63E+18
1.61E+18
1.58E+18
1.62E+18
1.64E+18
1.65E+18
1.62E+18
1.70E+18
1.66E+18
1.64E+18
1.65E+18
1.64E+18
1.61E+18
1.51E+18
1.58E+18
1.51E+18
1.47E+18
1.47E+18
1.43E+18
1.41E+18
1.39E+18
1.40E+18
1.31E+18
1.25E+18
1.17E+18
1.19E+18
1.15E+18
1.12E+18
1.02E+18
9.74E+17
9.45E+17
8.78E+17
8.19E+17
7.90E+17
7.23E+17
6.68E+17
6.45E+17
5.65E+17
4.39E+17
4.52E+17
3.74E+17
2.99E+17
2.36E+17
1.73E+17
1.08E+17
1.04E+17
1.88E+17
2.31E+17
3.10E+17
3.92E+17
4.36E+17
4.97E+17
5.73E+17
6.28E+17
7.15E+17
7.51E+17
7.88E+17
8.26E+17
8.63E+17
9.19E+17
1.04E+18
1.04E+18
1.08E+18
1.13E+18
1.15E+18
1.22E+18
1.31E+18
1.34E+18
1.39E+18
1.40E+18
1.43E+18
1.48E+18
1.49E+18
1.52E+18
1.56E+18
1.57E+18
1.60E+18
1.52E+18
1.60E+18
1.68E+18
1.67E+18
1.65E+18
1.67E+18
1.68E+18
1.67E+18
1.68E+18
1.67E+18
1.77E+18
1.76E+18
1.67E+18
1.68E+18
1.66E+18
1.66E+18
1.59E+18
1.68E+18
1.54E+18
1.50E+18
1.49E+18
1.51E+18
1.41E+18
1.44E+18
1.37E+18
1.28E+18
1.24E+18
1.28E+18
1.24E+18
1.17E+18
1.09E+18
1.06E+18
9.82E+17
9.13E+17
9.16E+17
8.21E+17
7.75E+17
7.35E+17
6.78E+17
6.30E+17
5.83E+17
4.95E+17
4.41E+17
3.88E+17
3.09E+17
2.49E+17
1.63E+17
1.09E+17
1.01E+17
1.82E+17
2.44E+17
3.35E+17
3.76E+17
4.31E+17
5.04E+17
6.12E+17
6.45E+17
6.83E+17
7.38E+17
8.15E+17
8.82E+17
9.04E+17
9.46E+17
9.92E+17
1.09E+18
1.19E+18
1.20E+18
1.26E+18
1.26E+18
1.33E+18
1.38E+18
1.39E+18
1.45E+18
1.44E+18
1.53E+18
1.55E+18
1.56E+18
1.59E+18
1.58E+18
1.67E+18
1.70E+18
1.62E+18
1.72E+18
1.65E+18
1.68E+18
1.73E+18
1.74E+18
1.72E+18
1.72E+18
1.76E+18
1.76E+18
1.81E+18
1.75E+18
1.72E+18
1.74E+18
1.60E+18
1.63E+18
1.63E+18
1.58E+18
1.56E+18
1.52E+18
1.50E+18
1.44E+18
1.46E+18
1.39E+18
1.32E+18
1.31E+18
1.26E+18
1.21E+18
1.17E+18
1.14E+18
1.08E+18
1.04E+18
9.66E+17
9.35E+17
8.80E+17
8.13E+17
7.49E+17
6.76E+17
6.12E+17
6.13E+17
5.20E+17
4.49E+17
3.55E+17
3.32E+17
2.33E+17
1.67E+17
1.10E+17
1.19E+17
1.93E+17
2.39E+17
3.24E+17
3.96E+17
4.80E+17
5.05E+17
5.84E+17
6.61E+17
7.15E+17
7.97E+17
8.30E+17
8.38E+17
9.34E+17
1.01E+18
1.06E+18
1.14E+18
1.17E+18
1.26E+18
1.28E+18
1.30E+18
1.37E+18
1.43E+18
1.47E+18
1.47E+18
1.52E+18
1.51E+18
1.57E+18
1.58E+18
1.64E+18
1.58E+18
1.68E+18
1.66E+18
1.71E+18
1.73E+18
1.71E+18
1.72E+18
1.72E+18
1.77E+18
1.75E+18
1.79E+18
1.82E+18
1.73E+18
1.75E+18
1.77E+18
1.73E+18
1.70E+18
1.65E+18
1.67E+18
1.69E+18
1.66E+18
1.61E+18
1.52E+18
1.47E+18
1.52E+18
1.43E+18
1.43E+18
1.37E+18
1.37E+18
1.29E+18
1.21E+18
1.21E+18
1.11E+18
1.05E+18
1.02E+18
9.95E+17
9.83E+17
8.72E+17
8.25E+17
7.93E+17
7.14E+17
6.27E+17
6.27E+17
5.35E+17
4.76E+17
3.89E+17
3.05E+17
2.46E+17
1.91E+17
1.24E+17
1.17E+17
1.88E+17
2.54E+17
3.62E+17
4.01E+17
4.50E+17
5.19E+17
5.69E+17
6.46E+17
7.55E+17
7.69E+17
8.23E+17
9.18E+17
9.90E+17
1.03E+18
1.08E+18
1.12E+18
1.15E+18
1.23E+18
1.27E+18
1.36E+18
1.41E+18
1.39E+18
1.52E+18
1.49E+18
1.57E+18
1.58E+18
1.61E+18
1.61E+18
1.64E+18
1.63E+18
1.66E+18
1.71E+18
1.75E+18
1.74E+18
1.79E+18
1.73E+18
1.80E+18
1.79E+18
1.85E+18
1.78E+18
1.77E+18
1.83E+18
1.79E+18
1.74E+18
1.79E+18
1.70E+18
1.74E+18
1.68E+18
1.73E+18
1.60E+18
1.62E+18
1.61E+18
1.52E+18
1.57E+18
1.50E+18
1.44E+18
1.40E+18
1.37E+18
1.37E+18
1.25E+18
1.19E+18
1.19E+18
1.13E+18
1.07E+18
9.99E+17
9.79E+17
8.60E+17
8.14E+17
7.94E+17
6.77E+17
6.40E+17
6.14E+17
5.75E+17
5.08E+17
3.95E+17
3.08E+17
2.42E+17
1.84E+17
1.21E+17
1.06E+17
1.95E+17
2.38E+17
3.27E+17
3.92E+17
4.26E+17
5.26E+17
6.31E+17
6.51E+17
7.48E+17
8.06E+17
8.75E+17
9.42E+17
9.59E+17
1.03E+18
1.08E+18
1.14E+18
1.19E+18
1.24E+18
1.29E+18
1.34E+18
1.36E+18
1.48E+18
1.46E+18
1.61E+18
1.52E+18
1.61E+18
1.60E+18
1.61E+18
1.66E+18
1.67E+18
1.72E+18
1.72E+18
1.79E+18
1.77E+18
1.75E+18
1.75E+18
1.81E+18
1.84E+18
1.75E+18
1.77E+18
1.88E+18
1.81E+18
1.81E+18
1.77E+18
1.80E+18
1.73E+18
1.72E+18
1.70E+18
1.68E+18
1.68E+18
1.68E+18
1.65E+18
1.61E+18
1.53E+18
1.53E+18
1.40E+18
1.37E+18
1.37E+18
1.35E+18
1.23E+18
1.21E+18
1.21E+18
1.10E+18
1.04E+18
1.03E+18
9.31E+17
8.83E+17
8.22E+17
7.95E+17
7.25E+17
6.72E+17
6.19E+17
5.59E+17
5.03E+17
3.81E+17
3.20E+17
2.64E+17
1.72E+17
1.12E+17
1.10E+17
1.82E+17
2.47E+17
3.23E+17
4.05E+17
4.67E+17
5.36E+17
6.50E+17
6.39E+17
7.62E+17
8.11E+17
8.87E+17
9.26E+17
1.00E+18
1.08E+18
1.09E+18
1.16E+18
1.22E+18
1.21E+18
1.29E+18
1.34E+18
1.39E+18
1.46E+18
1.49E+18
1.55E+18
1.54E+18
1.63E+18
1.58E+18
1.62E+18
1.76E+18
1.69E+18
1.67E+18
1.67E+18
1.75E+18
1.80E+18
1.83E+18
1.80E+18
1.90E+18
1.93E+18
1.94E+18
1.93E+18
1.86E+18
1.85E+18
1.79E+18
1.77E+18
1.76E+18
1.73E+18
1.76E+18
1.77E+18
1.63E+18
1.65E+18
1.66E+18
1.66E+18
1.55E+18
1.48E+18
1.51E+18
1.51E+18
1.37E+18
1.34E+18
1.30E+18
1.29E+18
1.23E+18
1.17E+18
1.12E+18
1.08E+18
1.05E+18
9.30E+17
9.38E+17
8.52E+17
7.97E+17
7.49E+17
6.74E+17
6.34E+17
5.57E+17
4.98E+17
3.94E+17
3.32E+17
2.69E+17
1.87E+17
9.80E+16
1.26E+17
2.10E+17
2.63E+17
3.49E+17
3.73E+17
4.70E+17
5.46E+17
6.27E+17
7.02E+17
7.41E+17
7.92E+17
8.72E+17
9.64E+17
9.84E+17
1.05E+18
1.14E+18
1.17E+18
1.20E+18
1.28E+18
1.29E+18
1.31E+18
1.36E+18
1.43E+18
1.53E+18
1.58E+18
1.57E+18
1.60E+18
1.65E+18
1.70E+18
1.75E+18
1.77E+18
1.75E+18
1.75E+18
1.80E+18
1.75E+18
1.82E+18
1.85E+18
1.81E+18
1.87E+18
1.88E+18
1.91E+18
1.90E+18
1.85E+18
1.83E+18
1.85E+18
1.86E+18
1.80E+18
1.81E+18
1.79E+18
1.68E+18
1.74E+18
1.69E+18
1.65E+18
1.57E+18
1.54E+18
1.58E+18
1.52E+18
1.44E+18
1.39E+18
1.36E+18
1.34E+18
1.29E+18
1.20E+18
1.20E+18
1.11E+18
9.78E+17
9.92E+17
9.16E+17
8.64E+17
7.58E+17
7.43E+17
6.69E+17
6.03E+17
5.57E+17
5.05E+17
4.22E+17
3.29E+17
2.77E+17
2.06E+17
1.03E+17
1.14E+17
1.86E+17
2.63E+17
3.49E+17
4.29E+17
4.82E+17
5.63E+17
6.16E+17
6.63E+17
7.59E+17
7.93E+17
8.67E+17
9.59E+17
9.86E+17
1.09E+18
1.16E+18
1.16E+18
1.24E+18
1.30E+18
1.32E+18
1.35E+18
1.42E+18
1.44E+18
1.51E+18
1.48E+18
1.54E+18
1.58E+18
1.68E+18
1.70E+18
1.76E+18
1.78E+18
1.74E+18
1.80E+18
1.84E+18
1.83E+18
1.89E+18
1.88E+18
1.88E+18
1.90E+18
1.88E+18
1.89E+18
1.89E+18
1.86E+18
1.88E+18
1.84E+18
1.85E+18
1.84E+18
1.81E+18
1.77E+18
1.81E+18
1.70E+18
1.71E+18
1.64E+18
1.62E+18
1.55E+18
1.61E+18
1.52E+18
1.40E+18
1.47E+18
1.39E+18
1.35E+18
1.30E+18
1.20E+18
1.14E+18
1.12E+18
1.05E+18
9.98E+17
8.93E+17
8.53E+17
8.38E+17
7.45E+17
6.91E+17
6.31E+17
5.43E+17
4.69E+17
3.98E+17
3.54E+17
2.55E+17
1.87E+17
9.46E+16
1.17E+17
1.98E+17
2.73E+17
3.34E+17
4.12E+17
4.87E+17
5.55E+17
6.35E+17
6.95E+17
7.82E+17
8.10E+17
9.17E+17
9.00E+17
1.03E+18
1.11E+18
1.12E+18
1.21E+18
1.27E+18
1.29E+18
1.33E+18
1.38E+18
1.46E+18
1.45E+18
1.52E+18
1.54E+18
1.64E+18
1.63E+18
1.64E+18
1.74E+18
1.81E+18
1.75E+18
1.80E+18
1.82E+18
1.88E+18
1.84E+18
1.88E+18
1.92E+18
1.88E+18
1.92E+18
1.85E+18
1.93E+18
1.95E+18
1.88E+18
1.90E+18
1.85E+18
1.86E+18
1.87E+18
1.81E+18
1.83E+18
1.74E+18
1.77E+18
1.67E+18
1.59E+18
1.57E+18
1.62E+18
1.54E+18
1.47E+18
1.48E+18
1.43E+18
1.34E+18
1.35E+18
1.31E+18
1.19E+18
1.22E+18
1.08E+18
1.05E+18
9.96E+17
9.40E+17
8.31E+17
8.81E+17
7.80E+17
7.22E+17
5.71E+17
5.49E+17
4.63E+17
3.88E+17
3.79E+17
2.86E+17
1.66E+17
9.87E+16
1.21E+17
1.97E+17
2.65E+17
3.46E+17
4.05E+17
5.06E+17
5.72E+17
6.63E+17
7.05E+17
7.93E+17
8.36E+17
9.09E+17
9.57E+17
1.01E+18
1.15E+18
1.20E+18
1.21E+18
1.28E+18
1.29E+18
1.38E+18
1.41E+18
1.46E+18
1.54E+18
1.51E+18
1.55E+18
1.61E+18
1.63E+18
1.71E+18
1.77E+18
1.76E+18
1.78E+18
1.85E+18
1.93E+18
1.90E+18
1.90E+18
1.84E+18
1.84E+18
1.90E+18
1.89E+18
1.91E+18
1.93E+18
1.93E+18
1.93E+18
1.90E+18
1.86E+18
1.81E+18
1.93E+18
1.90E+18
1.87E+18
1.81E+18
1.77E+18
1.67E+18
1.67E+18
1.58E+18
1.61E+18
1.53E+18
1.57E+18
1.46E+18
1.50E+18
1.42E+18
1.39E+18
1.33E+18
1.21E+18
1.25E+18
1.15E+18
1.03E+18
1.04E+18
9.76E+17
8.60E+17
8.43E+17
7.49E+17
7.31E+17
6.56E+17
5.50E+17
4.70E+17
4.14E+17
3.75E+17
2.68E+17
1.81E+17
1.11E+17
1.17E+17
2.17E+17
3.03E+17
3.73E+17
4.24E+17
5.31E+17
5.98E+17
6.61E+17
7.58E+17
8.20E+17
8.43E+17
9.02E+17
9.79E+17
1.01E+18
1.14E+18
1.18E+18
1.25E+18
1.25E+18
1.35E+18
1.46E+18
1.50E+18
1.42E+18
1.44E+18
1.50E+18
1.58E+18
1.64E+18
1.62E+18
1.70E+18
1.78E+18
1.81E+18
1.79E+18
1.86E+18
1.89E+18
1.87E+18
1.94E+18
1.90E+18
1.90E+18
1.92E+18
1.93E+18
1.89E+18
1.91E+18
1.89E+18
1.96E+18
1.86E+18
1.86E+18
1.93E+18
1.83E+18
1.88E+18
1.86E+18
1.81E+18
1.80E+18
1.70E+18
1.66E+18
1.62E+18
1.57E+18
1.55E+18
1.54E+18
1.56E+18
1.38E+18
1.38E+18
1.37E+18
1.31E+18
1.23E+18
1.21E+18
1.10E+18
1.07E+18
1.04E+18
9.44E+17
9.05E+17
8.21E+17
7.52E+17
6.86E+17
6.01E+17
5.79E+17
4.89E+17
4.18E+17
3.36E+17
2.54E+17
1.83E+17
1.24E+17
1.14E+17
2.19E+17
2.88E+17
3.74E+17
4.28E+17
5.38E+17
5.88E+17
6.36E+17
7.15E+17
7.60E+17
8.72E+17
9.20E+17
9.62E+17
1.04E+18
1.09E+18
1.19E+18
1.23E+18
1.31E+18
1.37E+18
1.45E+18
1.48E+18
1.52E+18
1.53E+18
1.60E+18
1.60E+18
1.66E+18
1.65E+18
1.70E+18
1.78E+18
1.87E+18
1.73E+18
1.86E+18
1.85E+18
1.88E+18
1.94E+18
1.89E+18
1.95E+18
1.90E+18
1.95E+18
1.91E+18
1.92E+18
1.94E+18
1.94E+18
1.92E+18
1.93E+18
1.92E+18
1.88E+18
1.91E+18
1.85E+18
1.79E+18
1.78E+18
1.76E+18
1.68E+18
1.65E+18
1.66E+18
1.59E+18
1.57E+18
1.48E+18
1.51E+18
1.35E+18
1.33E+18
1.24E+18
1.23E+18
1.20E+18
1.11E+18
1.07E+18
1.02E+18
1.03E+18
8.97E+17
8.51E+17
7.52E+17
6.96E+17
6.06E+17
5.77E+17
5.01E+17
4.22E+17
3.17E+17
2.60E+17
1.98E+17
1.14E+17
1.16E+17
2.02E+17
2.87E+17
3.56E+17
4.37E+17
4.97E+17
5.90E+17
6.87E+17
7.45E+17
8.01E+17
8.83E+17
9.57E+17
9.85E+17
1.05E+18
1.06E+18
1.13E+18
1.29E+18
1.35E+18
1.35E+18
1.43E+18
1.44E+18
1.47E+18
1.50E+18
1.56E+18
1.60E+18
1.67E+18
1.66E+18
1.66E+18
1.73E+18
1.81E+18
1.76E+18
1.88E+18
1.82E+18
1.87E+18
1.89E+18
1.90E+18
1.88E+18
2.00E+18
1.93E+18
1.94E+18
1.88E+18
1.89E+18
1.90E+18
1.96E+18
1.95E+18
1.90E+18
1.87E+18
1.88E+18
1.83E+18
1.82E+18
1.71E+18
1.79E+18
1.70E+18
1.61E+18
1.64E+18
1.58E+18
1.52E+18
1.54E+18
1.55E+18
1.39E+18
1.35E+18
1.24E+18
1.26E+18
1.24E+18
1.12E+18
1.06E+18
9.78E+17
9.38E+17
9.22E+17
8.03E+17
7.37E+17
6.71E+17
5.94E+17
5.44E+17
4.53E+17
4.33E+17
3.73E+17
2.63E+17
1.92E+17
1.11E+17
1.34E+17
2.14E+17
2.62E+17
3.28E+17
4.03E+17
5.27E+17
5.78E+17
6.47E+17
6.94E+17
7.76E+17
8.34E+17
8.78E+17
1.00E+18
1.07E+18
1.11E+18
1.14E+18
1.29E+18
1.35E+18
1.37E+18
1.47E+18
1.46E+18
1.53E+18
1.57E+18
1.63E+18
1.66E+18
1.64E+18
1.68E+18
1.74E+18
1.82E+18
1.84E+18
1.77E+18
1.85E+18
1.76E+18
1.92E+18
2.01E+18
1.86E+18
1.94E+18
1.92E+18
2.00E+18
1.96E+18
1.90E+18
1.86E+18
1.96E+18
1.89E+18
1.91E+18
1.89E+18
1.95E+18
1.81E+18
1.87E+18
1.82E+18
1.87E+18
1.77E+18
1.76E+18
1.71E+18
1.61E+18
1.64E+18
1.49E+18
1.48E+18
1.49E+18
1.40E+18
1.30E+18
1.30E+18
1.28E+18
1.19E+18
1.20E+18
1.10E+18
1.06E+18
9.73E+17
8.81E+17
7.89E+17
7.49E+17
6.85E+17
6.53E+17
5.59E+17
4.83E+17
4.07E+17
3.62E+17
2.64E+17
2.08E+17
1.10E+17
1.08E+17
1.98E+17
2.88E+17
3.71E+17
3.88E+17
4.76E+17
5.82E+17
6.52E+17
7.05E+17
8.09E+17
8.97E+17
9.31E+17
9.81E+17
1.07E+18
1.13E+18
1.19E+18
1.25E+18
1.32E+18
1.34E+18
1.36E+18
1.44E+18
1.43E+18
1.58E+18
1.69E+18
1.68E+18
1.64E+18
1.68E+18
1.84E+18
1.81E+18
1.78E+18
1.85E+18
1.79E+18
1.83E+18
1.86E+18
1.87E+18
1.87E+18
1.94E+18
1.87E+18