/*--------------------------------*- C++ -*----------------------------------*\
| =========                 |                                                 |
| \\      /  F ield         | OpenFOAM: The Open Source CFD Toolbox           |
|  \\    /   O peration     | Version:  v1806                                 |
|   \\  /    A nd           | Web:      www.OpenFOAM.com                      |
|    \\/     M anipulation  |                                                 |
\*---------------------------------------------------------------------------*/
FoamFile
{
    version     2.0;
    format      ascii;
    class       volScalarField;
    object      dnp5_s;
}
// * * * * * * * * * * * * * * * * * * * * * * * * * * * * * * * * * * * * * //

dimensions      [0 -3 -1 0 0 0 0];

internalField   nonuniform List<scalar> 
6400
(
327007670630307
530943118952022
718296693575172
909205034776146
1.15439948467062E+015
1.34494731505374E+015
1.48413209742865E+015
1.70523240766338E+015
1.87252891421769E+015
2.08169014547564E+015
2.19687497570178E+015
2.48003835997546E+015
2563394307184090
2.69998243731691E+015
2.93696146276313E+015
3.0634487943057E+015
3328083221679893
3.34247117594189E+015
3597004804725839
3646599401019457
3915667137099667
3.97846422415514E+015
3.98088386883351E+015
4.09735159791597E+015
4.29901030674837E+015
4.28985138326782E+015
4468174324296055
4501529694560328
4645035734981645
4745377912616965
5086970032144227
4855674735808273
4965078401567966
5040801912542800
5145479963527955
4984938975001855
5232424779689065
5095414429679486
5126674939785974
5027989163205648
5311688441938296
5080328188698225
5253064835972362
5027323354938444
5006082447292062
4970518542287797
5052153131537312
5008258503579994
4791205008471775
4937731544934551
4710642208140197
4885181409503592
4582677107028962
4510315115842204
4376097912709671
4.29967611501558E+015
4160116206519389
4108589142328279
3893500593569611
3780670451117725
3.62176962442059E+015
3501420720317118
3354374528621402
3.20005316366454E+015
3.09357255859013E+015
2860425990486830
2.81614162110481E+015
2.5024160134439E+015
2496456217491132
2250870402249355
2.08383372331152E+015
1.89711510242611E+015
1659031809609894
1.51992984728773E+015
1305802660710004
1.22241585897192E+015
943778346992621
744389881959123
576573720171877
329113898246314
496288610605401
777366878256913
1.14563517438258E+015
1.49995884711685E+015
1.76223209102638E+015
2.09378836886751E+015
2304963264153101
2.63492809784335E+015
3.03611817689831E+015
3.14144579692464E+015
3428068136342568
3725051101967220
4121629240829843
4.17791439824755E+015
4522656927624506
4900007822868384
5075700009279862
5347317303846678
5449738102413754
5721322918528512
5848492297564308
6194777553414051
6199649321222854
6359816807550279
6688693613096563
6763247899797284
6961707481101904
6994413282325005
7408416110717113
7312003825780895
7505510443146564
7401417004298465
7889909162487178
7593023632218701
7759313306759189
7776267058733826
7902348409625655
7889665574096736
8063100508090137
7987555628601627
8098242193217639
8127911259173252
8049784342746075
7887992933815717
7740215976948681
7691205992792118
7831853929432272
7555770847707386
7593835593520169
7507166844201558
7430680089603344
7340341275202102
7238683720258404
6987138109063858
6766284635064771
6573525022096452
6410872934186537
6216440680937196
6147635080250863
5828842834068801
5589265532457882
5374842791966417
5135931298622701
4827467200195302
4775566633805516
4557278957519068
4236667918021719
3958457497686989
3670389867152447
3559816977118640
3.21452231405669E+015
2885174570955552
2.53340045670789E+015
2.29268640927492E+015
2.0648987857613E+015
1.72519041645344E+015
1.44130276269885E+015
1.11083451300169E+015
927113653241308
481532025912535
675598896576217
1.09531143684024E+015
1.47653213964691E+015
2.00166323960303E+015
2260776330127255
2673593695019222
3050148868187662
3469315770457103
3928674757149171
4.13440951171494E+015
4470350380583987
4843349163252000
5348746355737261
5534458144608844
6122383083775233
6473020452200839
6675880863759413
6959953644690735
7298330397464187
7675291551283361
7750251818634815
8261235304874170
8192933120194745
8459402580110261
8847049144656742
9.01502769870428E+015
9.28151339784583E+015
9.74504586562744E+015
9.71568534496638E+015
9.69244701251839E+015
9.87637248652674E+015
1.01849177810843E+016
1.02221868048216E+016
1.02938992269672E+016
1.03924550897393E+016
1.05341585760714E+016
1.06154683808003E+016
1.06696586780602E+016
1.03561279411117E+016
1.04955416965736E+016
1.04319976051208E+016
1.05993265901271E+016
1.05916454362153E+016
1.06099145654983E+016
1.03638253342496E+016
1.02051031390388E+016
1.02359089508164E+016
1.00752218092561E+016
9.91206630533925E+015
9.92866279434123E+015
9.8845895348976E+015
9.65467457277413E+015
9.55732041272821E+015
9.27105533628293E+015
8985017609002053
8786363156985084
8383143174676459
8395972163239641
8185852817645953
7826365071034353
7346203635798695
7264585285775209
6942480237483161
6419219896365621
6235229465453147
6041463020471009
5609499608090445
5273704892255659
4836398774511442
4694061958364237
4339381022657323
3.9869086216904E+015
3.39105894022169E+015
3.25377252336961E+015
2720541297470057
2307220516571180
2002605114712736
1.50160875248143E+015
1.15095189698459E+015
681568436064604
819860061007899
1.32630630749465E+015
1.93586189573213E+015
2.46785894045346E+015
2942710148777519
3392406795982127
3.87154515997794E+015
4.30358976848865E+015
4966052755129728
5338824188633331
5662017265069345
6182500698535866
6470958070495112
7164048237427537
7499339537255413
7939471280328737
8324779396326995
8650099811372853
9.21699495283124E+015
9.40977080502559E+015
9.98184625958734E+015
1.02260192621646E+016
1.03267187027725E+016
1.07645607149757E+016
1.10213678354038E+016
1.14551338018736E+016
1.12724587482695E+016
1.16648471668165E+016
1.1992733379575E+016
1.2023717822839E+016
1.25185595184052E+016
1.25789856784604E+016
1.25480174744224E+016
1.29055727531366E+016
1.28832762957983E+016
1.30255968727194E+016
1.31767678278266E+016
1.32188923801467E+016
1.30537556906543E+016
1.30461394936466E+016
1.31586123731258E+016
1.32703220089817E+016
1.31755986035525E+016
1.28549875640551E+016
1.28893172878812E+016
1.26481160636673E+016
1.25197612211314E+016
1.26205093794174E+016
1.24668538227278E+016
1.23044128447562E+016
1.21711050382814E+016
1.20166537595163E+016
1.17942250805923E+016
1.14731106250881E+016
1.12220034729963E+016
1.09530981291764E+016
1.07128874977503E+016
1.03438186077814E+016
1.00009111109458E+016
9.78140549270714E+015
9.29400136266239E+015
8951418650347339
8501039955649501
8140399223989817
7907853507249604
7400004191633913
7005602109059222
6738077099451800
6160707657204485
5775902957213138
5376369279213175
4908939397184523
4.36982957146234E+015
3918638915463037
3461991879517869
2869860980809879
2451603475198082
1908190254578127
1.34132271980399E+015
834970660828204
963934474340243
1.76281670316344E+015
2.2274859167671E+015
2.88528824553776E+015
3.43648005542577E+015
4.1120318582465E+015
4649615196721920
5225864132373210
5779930285268416
6378037219155203
6961951069492344
7297729546101102
7763990203855641
8523222738405584
9.15591922373488E+015
9.5900749316294E+015
1.00590475401308E+016
1.0517919350042E+016
1.07659085707362E+016
1.12805783612842E+016
1.15887014359649E+016
1.20494082784175E+016
1.24333360602032E+016
1.28160459000368E+016
1.32847911593738E+016
1.36173380300027E+016
1.38142061671565E+016
1.40633483728987E+016
1.42604600984429E+016
1.46579151555111E+016
1.46755347157529E+016
1.4750852246077E+016
1.51097878590036E+016
1.49521374527107E+016
1.52795689671404E+016
1.53443797182235E+016
1.5477460175534E+016
1.58975527136871E+016
1.58267334489731E+016
1.59720258042577E+016
1.57811337022827E+016
1.58754186486091E+016
1.58407966187145E+016
1.55545964991734E+016
1.50949127279607E+016
1.5300371415684E+016
1.5287656101703E+016
1.49498314826146E+016
1.51211877956762E+016
1.47023781563794E+016
1.46334426418848E+016
1.40521920246165E+016
1.4007615349166E+016
1.41691631697059E+016
1.36736719050985E+016
1.32685681725705E+016
1.29531212069505E+016
1.24424949836838E+016
1.19970367744728E+016
1.17364459143799E+016
1.12938782874022E+016
1.05595242471292E+016
1.01618743193487E+016
9.71893319017225E+015
9.34565834066174E+015
8908271026787372
8485434059435300
8184992138666397
7360753982320988
6948440033435931
6318423020401479
5713154587835751
5315926879931955
4554274700703639
3929551675354756
3434937328952980
2.87733102478338E+015
2311166648496311
1.57465928685183E+015
961141327463196
1.16248824315583E+015
1978083883408426
2699868762734701
3.45528507916775E+015
3.96961384596915E+015
4694549135145117
5368850517561589
6125322383686543
6738385644746358
7377951322686063
7975018946106973
8509857855383435
9.15590298450885E+015
9.97155059028473E+015
1.06065530457102E+016
1.08715609752831E+016
1.16543079091235E+016
1.20151759899476E+016
1.23918123592462E+016
1.3207963381029E+016
1.37478202111485E+016
1.40836474054354E+016
1.43615492804755E+016
1.49069924043491E+016
1.52724074684615E+016
1.57665021596303E+016
1.59866898253622E+016
1.63267554576427E+016
1.66380614206252E+016
1.69789227749812E+016
1.68730430212698E+016
1.72025369174052E+016
1.76007227396448E+016
1.7762465430897E+016
1.79329773042051E+016
1.80625663279193E+016
1.82226850965686E+016
1.8505085237219E+016
1.87647504614282E+016
1.82332405934877E+016
1.83953080692606E+016
1.8412684041112E+016
1.81395402592984E+016
1.81742922030012E+016
1.80336605055871E+016
1.80473014554517E+016
1.77699354748705E+016
1.75705177792302E+016
1.74570055892851E+016
1.71721695647304E+016
1.69740510071724E+016
1.66226341558973E+016
1.6178637477029E+016
1.6075144889544E+016
1.57304348386191E+016
1.53988298430999E+016
1.50587966892715E+016
1.44582863499323E+016
1.39718890519014E+016
1.37136853580348E+016
1.32708741426667E+016
1.25269714374884E+016
1.21054985651228E+016
1.13316182486944E+016
1.09022531124785E+016
1.04536120149658E+016
1.00094042261591E+016
9.24557599064289E+015
8599352230031151
8082262794804763
7391056378091744
6685169701048196
6036315185819707
5311493571225944
4604697497524753
4059936421144363
3.3758427854322E+015
2695402975576631
1.83334366180888E+015
1.15050856611399E+015
1.29300452667628E+015
2.16053158784811E+015
3066599204155389
3.8955954537274E+015
4.50250404812209E+015
5290561208874119
6062850081151656
6898845437142312
7586381788772700
8460604282836432
9.05781805929161E+015
9.74608517609331E+015
1.05078185514518E+016
1.12014446128432E+016
1.17451826179837E+016
1.25444935623741E+016
1.29321076484685E+016
1.37473492735937E+016
1.4531151757126E+016
1.50760265080886E+016
1.54474825642838E+016
1.60930405166284E+016
1.63293537338074E+016
1.66611211215869E+016
1.72233231267228E+016
1.79026099515303E+016
1.85911531351745E+016
1.87926819301986E+016
1.85779993620907E+016
1.92413717453894E+016
1.95417974269323E+016
1.97597278402461E+016
1.99250431612248E+016
2.00434271189788E+016
2.03987413845008E+016
2.05284928004753E+016
2.1016968719438E+016
2.09672766877882E+016
2.06791928180276E+016
2.08462944538695E+016
2.08964736623002E+016
2.09880628971057E+016
2.08612345418165E+016
2.08753626684621E+016
2.05151766351312E+016
2.04029635832684E+016
2.04166045331331E+016
2.0255511410922E+016
1.98665819475192E+016
1.95965236186512E+016
1.9123799748937E+016
1.88595875414395E+016
1.90542958615314E+016
1.81150190279941E+016
1.76687650967077E+016
1.7791208860969E+016
1.73105277705004E+016
1.65185407170492E+016
1.57589184410746E+016
1.56853385079356E+016
1.51893438273214E+016
1.45193945574808E+016
1.36654548567277E+016
1.3005411514765E+016
1.24566718280074E+016
1.17639876417257E+016
1.1609747472899E+016
1.07727452848945E+016
9.82697276094548E+015
9.33435583934531E+015
8361593721735519
7655089954102858
6897578777512023
6126442890282569
5197981381280825
4580582246871177
3.69804526908042E+015
3121698898072954
2241467890378364
1.38532777449831E+015
1.45653678063698E+015
2.49941175662847E+015
3494291700090235
4364389430742514
5117808322373952
6078991871824824
6945127231325944
7609733795802897
8662993756840152
9.48633875575395E+015
1.0163157218205E+016
1.09797304598645E+016
1.19686343681475E+016
1.24266454990791E+016
1.32032540054805E+016
1.4125495890913E+016
1.4842149174814E+016
1.55464768861587E+016
1.60512732272809E+016
1.68262740503053E+016
1.72351777617242E+016
1.77920208222704E+016
1.85060595907807E+016
1.8913501771857E+016
1.94224391156166E+016
1.9867556301081E+016
2.06710732050129E+016
2.05374243747914E+016
2.14784875231919E+016
2.19102885433122E+016
2.1782323442201E+016
2.20138948053794E+016
2.22253295282815E+016
2.24841827911892E+016
2.29041291763081E+016
2.28120527647217E+016
2.32191701612774E+016
2.34263826854118E+016
2.35402196598775E+016
2.35217069422041E+016
2.35769203107038E+016
2.33714941014326E+016
2.32472640223081E+016
2.36928683845533E+016
2.30723675579721E+016
2.25960710585314E+016
2.28640182880156E+016
2.25169860277685E+016
2.23518330990501E+016
2.1698204251369E+016
2.16119739611531E+016
2.14940771801801E+016
2.06811415251511E+016
2.03061777961335E+016
1.98610606106692E+016
1.9580933961663E+016
1.91317569696914E+016
1.88949890541835E+016
1.8175266556563E+016
1.72757758267976E+016
1.67220182191969E+016
1.59700608579081E+016
1.52858697868398E+016
1.44191985328797E+016
1.40611560773847E+016
1.33349054109004E+016
1.26637544383336E+016
1.20519903153561E+016
1.13332421712973E+016
1.03523766798989E+016
9.46482178126507E+015
8557146481580885
7839794910960621
6793111836465249
6022349451434471
5080831604705134
4.17992806227519E+015
3504441216358575
2.54743114799724E+015
1496361858551347
1.5788490071674E+015
2.70422087531057E+015
3928285015724467
4851988431499612
5875498130451108
6575944666774823
7689630787867272
8671551828957618
9.45741669419569E+015
1.04247386710857E+016
1.14810678458425E+016
1.19808462661216E+016
1.31319475639856E+016
1.4193034831969E+016
1.50666402354436E+016
1.52397016672384E+016
1.6232844013515E+016
1.75105950351819E+016
1.79251824757111E+016
1.85526661694849E+016
1.92988586055333E+016
1.97910695464827E+016
2.0147033381046E+016
2.11480192734948E+016
2.14409749110641E+016
2.20038264852412E+016
2.2759112887866E+016
2.29395306890521E+016
2.33231012078652E+016
2.37977737847029E+016
2.43287964758625E+016
2.45238295804749E+016
2.51730738371281E+016
2.52237402223396E+016
2.52245521836411E+016
2.548957635244E+016
2.57880533268594E+016
2.60766243734008E+016
2.62622387269162E+016
2.61471026143682E+016
2.6025795595929E+016
2.60478809433289E+016
2.56795752969834E+016
2.55917210841646E+016
2.55309863788149E+016
2.50675188679374E+016
2.49566049541569E+016
2.46055128874025E+016
2.46573160184361E+016
2.43481211548374E+016
2.38227821927881E+016
2.33375541190313E+016
2.28446936090407E+016
2.26163700910681E+016
2.20885952451144E+016
2.16808282795176E+016
2.13261635830367E+016
2.07439873298847E+016
1.98131548938827E+016
1.93362088254008E+016
1.8302582088633E+016
1.8027002422915E+016
1.72788612797431E+016
1.63857038481292E+016
1.52344401580049E+016
1.45680472786647E+016
1.40782235039416E+016
1.30992417627625E+016
1.23749398034017E+016
1.13464933797373E+016
1.06372451829057E+016
9.77705338013127E+015
8654257053236366
7573585278661576
6663360420490787
5731813458543467
4701629437693912
3829810349082522
2671856097834082
1.67837272781084E+015
1.77551577791838E+015
2.86539519365181E+015
4175397318213002
5277586067276674
6407982351953315
7326749043015540
8423221584516881
9.33317037584517E+015
1.04436248909578E+016
1.15125069874353E+016
1.26673920249642E+016
1.346087308721E+016
1.41430667334767E+016
1.54379338993786E+016
1.63452681753161E+016
1.72114684917214E+016
1.80765320623046E+016
1.89063565124041E+016
1.97022409801022E+016
2.04562282446447E+016
2.13649753332468E+016
2.17232126594542E+016
2.24291318149498E+016
2.32568451656654E+016
2.38898501962893E+016
2.46584527642582E+016
2.50288695099875E+016
2.55376444614869E+016
2.60408980761363E+016
2.63786739775466E+016
2.68538337311653E+016
2.71745584452448E+016
2.75522828426874E+016
2.76274704592032E+016
2.81165959472071E+016
2.79517678030092E+016
2.83696030887443E+016
2.83380989902473E+016
2.82788258152402E+016
2.85245253050642E+016
2.88005921475631E+016
2.85112091397202E+016
2.84745084888938E+016
2.81688862550216E+016
2.81050660967262E+016
2.77072050590073E+016
2.7502266026517E+016
2.71743960529845E+016
2.70196362289249E+016
2.6644510107647E+016
2.63403494041174E+016
2.58906852353648E+016
2.54402091053108E+016
2.49949295275862E+016
2.41967715682439E+016
2.41425325533059E+016
2.32578195192272E+016
2.22696626153416E+016
2.18981091237902E+016
2.10944298275979E+016
2.02059817715325E+016
1.92095428623719E+016
1.83576330648725E+016
1.76270302858123E+016
1.69631707257327E+016
1.63410459765485E+016
1.53688522318497E+016
1.45218629198372E+016
1.3190278863883E+016
1.25268415236802E+016
1.15793638809981E+016
1.05146390263841E+016
9.14848165821344E+015
8258166091154624
7201918112527969
6283427488308242
5162027734851857
4071856013049902
3020122539259404
1748201399737025
2.00838627917918E+015
3.14876968786387E+015
4526992800974340
5681406900948382
6689765402014500
7976139452702998
9.16033629321486E+015
1.01477949103812E+016
1.14840721026579E+016
1.25596609994855E+016
1.40450467651636E+016
1.46635826453953E+016
1.5288760369073E+016
1.65459850090388E+016
1.76621070140357E+016
1.8512880065713E+016
1.95318914990544E+016
2.03961431083361E+016
2.13588044273557E+016
2.2490678481601E+016
2.31901019466848E+016
2.4024148595552E+016
2.44650435822487E+016
2.46517946815861E+016
2.57073443734935E+016
2.65551943644856E+016
2.73453951030735E+016
2.75558554724138E+016
2.84391069761499E+016
2.85873711097978E+016
2.89418734140184E+016
2.91568807666469E+016
2.95391521473777E+016
3.00547475738094E+016
3.05206509685913E+016
3.06180863247673E+016
3.06723253397053E+016
3.11629123580518E+016
3.09017856035E+016
3.16127389190647E+016
3.13615180923907E+016
3.10451779693391E+016
3.12361512674442E+016
3.07778803088961E+016
3.0570343000241E+016
2.99037227717365E+016
3.00680637391534E+016
2.98207403267265E+016
2.93691274508504E+016
2.91166074860941E+016
2.88012417166043E+016
2.80925618926837E+016
2.75201291751493E+016
2.69421751207649E+016
2.6548211497293E+016
2.60698038984685E+016
2.4730879712349E+016
2.44817699850589E+016
2.36839368102372E+016
2.2934496528983E+016
2.22310132573918E+016
2.09208325013442E+016
2.0308613680038E+016
1.93011320971774E+016
1.84761794148867E+016
1.79305414203007E+016
1.66974969878926E+016
1.5502354909037E+016
1.47196566928746E+016
1.34905583923916E+016
1.25650037048491E+016
1.13722000745417E+016
1.01476000396689E+016
9.08615550871281E+015
7990706038451321
6856802080952339
5494249820960187
4482627235462171
3.21788383384476E+015
1886039950274101
2.29963679801548E+015
3481089209328378
4783670007594160
6164442679191235
7403722974394633
8562310555458217
9.89418691748093E+015
1.0991049200407E+016
1.20845174850929E+016
1.3429904883172E+016
1.47235378678956E+016
1.58527162106201E+016
1.65165920099257E+016
1.77666876296647E+016
1.89286042520643E+016
2.01993236888605E+016
2.13968042162643E+016
2.22211073295139E+016
2.31641191850379E+016
2.40545159482268E+016
2.48011955610561E+016
2.60019239336658E+016
2.61503504595741E+016
2.713866975572E+016
2.80769722356955E+016
2.8687079957618E+016
2.94678619451088E+016
2.98931672748174E+016
3.0086089280046E+016
3.10010072745393E+016
3.15656451635796E+016
3.20109247413042E+016
3.2646690440353E+016
3.26910235274131E+016
3.27309720234453E+016
3.29831672036811E+016
3.37171802202074E+016
3.36728471331473E+016
3.3211165937133E+016
3.3554787959914E+016
3.35825570364242E+016
3.38794100882406E+016
3.34973010997701E+016
3.31777131315126E+016
3.26996303172087E+016
3.2717493465841E+016
3.23935209065556E+016
3.18699682593695E+016
3.17895840905242E+016
3.13162106517688E+016
3.10323489807759E+016
3.04397796229651E+016
2.97332108984283E+016
2.94769559116853E+016
2.88621388142143E+016
2.7941699482871E+016
2.73941127811615E+016
2.63601612598732E+016
2.54587218229843E+016
2.49350067835379E+016
2.4223403898932E+016
2.30545044093398E+016
2.21503043040259E+016
2.11044981477361E+016
2.01156916748093E+016
1.90193815255683E+016
1.80927712883339E+016
1.6782915316807E+016
1.56227850092706E+016
1.46271093437334E+016
1.34367253581044E+016
1.24704264524542E+016
1.09991688134217E+016
9.78778750853667E+015
8555831104272509
7310347424725902
6168226418856072
4824349268797667
3443592836426621
2.0712645623648E+015
2.38335000819675E+015
3.78529863053609E+015
5232684607305535
6529256891940460
7917840631257651
9.29413127647063E+015
1.05754224494119E+016
1.22146586424921E+016
1.30478933300577E+016
1.44416086648002E+016
1.57908122809962E+016
1.70247173923839E+016
1.82153774448554E+016
1.93680377084183E+016
2.02745113053763E+016
2.17186656761659E+016
2.26017547876417E+016
2.35575956317289E+016
2.45818036173997E+016
2.55566443559412E+016
2.65717583750355E+016
2.80898012242587E+016
2.85017903886231E+016
2.93564608545475E+016
3.05821976352425E+016
3.10653146096155E+016
3.17600286991508E+016
3.22179748731783E+016
3.28327919706493E+016
3.34500449520247E+016
3.39909735710622E+016
3.41156908269675E+016
3.45375859192099E+016
3.5587451882007E+016
3.53029406419729E+016
3.5868552884575E+016
3.58825186189602E+016
3.57980746436076E+016
3.60309451448684E+016
3.59601421193805E+016
3.63644988475112E+016
3.58930741158793E+016
3.61835938695443E+016
3.58942108617013E+016
3.5916133816841E+016
3.54555893666488E+016
3.50619505276974E+016
3.48584730255498E+016
3.44114071329619E+016
3.401744350949E+016
3.35754117769712E+016
3.28922275379167E+016
3.24394779162186E+016
3.15104317950798E+016
3.09282555419278E+016
3.02522165623262E+016
2.94605542933956E+016
2.8501140819582E+016
2.75496845665227E+016
2.66581510575117E+016
2.57974720779564E+016
2.5293081717485E+016
2.38036199060735E+016
2.3006436300293E+016
2.16879735389705E+016
2.05840309534956E+016
1.93483882449228E+016
1.78378154396732E+016
1.70779820537602E+016
1.5666176221221E+016
1.43835534317453E+016
1.32408315745124E+016
1.18525401412637E+016
1.03013205532626E+016
9.22967778836016E+015
7698351252245031
6538838035297774
5164073877331555
3.7760097932473E+015
2.15939484202606E+015
2521838127774997
4.16998965594523E+015
5610928659981027
6971337342137307
8594772768290876
1.00393818374093E+016
1.12714031985776E+016
1.27140797997985E+016
1.37615585963693E+016
1.55469640629396E+016
1.69896406641605E+016
1.82049843401967E+016
1.96770701797567E+016
2.09073539437399E+016
2.17667337852128E+016
2.29023428614449E+016
2.46592647255596E+016
2.53305943296127E+016
2.68829019457578E+016
2.76237354372165E+016
2.90586334491694E+016
2.94668875915471E+016
3.04568308102959E+016
3.1285843299094E+016
3.24769905283464E+016
3.37134451982207E+016
3.39554096660579E+016
3.4791080237528E+016
3.4838661169794E+016
3.58566982495736E+016
3.60522185309669E+016
3.67657701226963E+016
3.7441321925517E+016
3.78783194979667E+016
3.76080987768384E+016
3.83601373342573E+016
3.85889480290108E+016
3.85855377915446E+016
3.89158436489815E+016
3.87687162611556E+016
3.90624838600265E+016
3.88939206938419E+016
3.86691698055957E+016
3.83562399200103E+016
3.78807553818711E+016
3.7480620852508E+016
3.73697069387276E+016
3.70577514067039E+016
3.68872395333958E+016
3.63226016443555E+016
3.58122027702532E+016
3.54809225592545E+016
3.43680483994635E+016
3.38444957522775E+016
3.31319185141098E+016
3.23311622786029E+016
3.14203040906169E+016
3.08540422789737E+016
2.95407760699806E+016
2.85380038626686E+016
2.77799567916188E+016
2.67833554901979E+016
2.55790544878617E+016
2.44921630897177E+016
2.30525557022163E+016
2.17599133102805E+016
2.06342101619263E+016
1.95234471015191E+016
1.83417186233637E+016
1.69651194328562E+016
1.5222374413065E+016
1.41606538152665E+016
1.27700239334696E+016
1.11675208696679E+016
9.60439792898728E+015
8453394066479403
6772065799531218
5429877528979865
3928463647210790
2358033054816999
2.48349731511971E+015
4.32653579486811E+015
5880207505999618
7624641405297836
9.12743562127941E+015
1.07034362682013E+016
1.22618985510114E+016
1.36149833422285E+016
1.48441465996156E+016
1.6549395246505E+016
1.76483036719107E+016
1.93576446037595E+016
2.09812424221734E+016
2.22425431078726E+016
2.33515198534165E+016
2.45899232304143E+016
2.60095563698996E+016
2.69817988322765E+016
2.80651176006941E+016
2.94072896320194E+016
3.07691111268402E+016
3.14042272568479E+016
3.23530852337425E+016
3.33079517242679E+016
3.46925081355299E+016
3.50957281178385E+016
3.61132780208372E+016
3.72100753468591E+016
3.75485008173107E+016
3.81613692076581E+016
3.91350732003776E+016
3.92888586708755E+016
3.99358294358846E+016
4.03552886442226E+016
4.0805439989756E+016
4.06191760671994E+016
4.11875489782265E+016
4.10004730943684E+016
4.16782983888333E+016
4.14355219596946E+016
4.13338644047509E+016
4.12689075006335E+016
4.14481885559975E+016
4.06331418015847E+016
4.06794235957683E+016
4.01618794622131E+016
3.97836678879896E+016
3.94069178441089E+016
3.92018164193582E+016
3.87883657246511E+016
3.83063854961002E+016
3.75262530776505E+016
3.6818222822771E+016
3.62163971061235E+016
3.54940763323383E+016
3.42892881532212E+016
3.30997648465717E+016
3.24321702645054E+016
3.13824666939686E+016
3.04477368437195E+016
2.94584431940118E+016
2.82325440210566E+016
2.70456189905718E+016
2.57359254113052E+016
2.44458812955341E+016
2.31728883670937E+016
2.20315955617514E+016
2.07988759138639E+016
1.95656690891954E+016
1.76895513060253E+016
1.66396853432281E+016
1.51085699170514E+016
1.33804077222346E+016
1.20643321271384E+016
1.05472636314771E+016
9.12180060984722E+015
7348314735182509
5886800631767532
4257324213531045
2535592752221852
2.64731862730374E+015
4593151407817889
6227694464575532
7890526253076293
9.46426964758007E+015
1.13288900587215E+016
1.30123943819576E+016
1.46092461951011E+016
1.57919815052703E+016
1.72871432850181E+016
1.89615698809038E+016
2.05370995902708E+016
2.19042800296813E+016
2.34273570389736E+016
2.4774563230368E+016
2.64132635289891E+016
2.74962575128861E+016
2.85738925521934E+016
2.99642950848259E+016
3.0969340783782E+016
3.25568875204108E+016
3.33284131490649E+016
3.45496029464716E+016
3.58412709848457E+016
3.68711626996267E+016
3.75092018903197E+016
3.89444246867931E+016
3.84445813096099E+016
3.96358909311226E+016
4.03950747479945E+016
4.07885511946855E+016
4.17999301917931E+016
4.19593993914012E+016
4.30237182653645E+016
4.28637618889754E+016
4.33639300506792E+016
4.38746537093021E+016
4.33061184060148E+016
4.39305166468431E+016
4.37289878518189E+016
4.34842627155567E+016
4.39381490830769E+016
4.37460390391497E+016
4.34381433136333E+016
4.35000147648051E+016
4.3074384650576E+016
4.24964305961917E+016
4.16705035603392E+016
4.17003837362332E+016
4.12588391804953E+016
4.02661352933215E+016
4.01091019776177E+016
3.90715778266029E+016
3.79588660590722E+016
3.7179545601924E+016
3.6409806288133E+016
3.49180709850774E+016
3.46952688039548E+016
3.33860624014691E+016
3.21146933956317E+016
3.11642114961342E+016
3.02512422087644E+016
2.92205385326819E+016
2.71555585507905E+016
2.62745805386985E+016
2.46691706534375E+016
2.33244003459475E+016
2.18982715160505E+016
2.03979294231993E+016
1.90974922027694E+016
1.73319635488591E+016
1.58701896178277E+016
1.4547732006902E+016
1.27874811014512E+016
1.11048212179686E+016
9.8016395683397E+015
7799586587311964
6256129349352914
4.47442642631735E+015
2612290616758446
2657435665120024
4826574042763688
6666234763497980
8445907783279873
9.95600965097465E+015
1.16570036206444E+016
1.36953837502998E+016
1.53996905220795E+016
1.6945632361621E+016
1.85312303911262E+016
2.02707762833896E+016
2.19726471712649E+016
2.31115040927028E+016
2.47734264845459E+016
2.63895542589863E+016
2.78125976359378E+016
2.91856241967188E+016
3.02721908103423E+016
3.20010188134263E+016
3.29464665528547E+016
3.41494684171086E+016
3.53380173701963E+016
3.65220193399958E+016
3.77438587064437E+016
3.87942118460217E+016
3.95197804650128E+016
4.08505850381176E+016
4.11388313001384E+016
4.21055524256653E+016
4.3035085723585E+016
4.33632804816381E+016
4.41461735685128E+016
4.42937881331195E+016
4.48446226800349E+016
4.53642779129739E+016
4.57376177193885E+016
4.60869234712797E+016
4.57951045795324E+016
4.63668877280256E+016
4.64466223278297E+016
4.63642894518609E+016
4.60302485724373E+016
4.61520427676574E+016
4.60490860746313E+016
4.54769781416175E+016
4.53961067959914E+016
4.50255276580018E+016
4.39639694524635E+016
4.38062865677186E+016
4.33246311236882E+016
4.2879026761443E+016
4.22128937097193E+016
4.14550090309298E+016
4.04239805703267E+016
3.90870050913308E+016
3.82955052146605E+016
3.69177692783309E+016
3.62694993752395E+016
3.52517870799805E+016
3.42254679949259E+016
3.29828424191605E+016
3.15755510914575E+016
3.06531630529907E+016
2.86628835108342E+016
2.71576696501743E+016
2.6111051532583E+016
2.4600803511854E+016
2.32147855702494E+016
2.16624779541044E+016
1.97881464857975E+016
1.84711452548176E+016
1.69501793449092E+016
1.52150830005779E+016
1.36742240387835E+016
1.1856551230093E+016
1.00889439552509E+016
8388843143012759
6486775076647694
4751386426247823
2800373332630314
2.98848852695424E+015
5171933662729757
6929456378207626
8942746903647670
1.07345506252735E+016
1.25395405984351E+016
1.4318109350847E+016
1.63277298112044E+016
1.78030634959704E+016
1.9476353346034E+016
2.11361646384933E+016
2.28307278746554E+016
2.43677706183329E+016
2.63250845316498E+016
2.7944460151296E+016
2.92112821738452E+016
3.09662553308365E+016
3.17800029471669E+016
3.37410518824706E+016
3.51262578627736E+016
3.59338345732129E+016
3.71769473257593E+016
3.81240189877906E+016
3.9668206990921E+016
4.07058935341961E+016
4.13262319685171E+016
4.28454115635623E+016
4.34574679926083E+016
4.38265856002553E+016
4.53556711231783E+016
4.55776613429995E+016
4.59477533042083E+016
4.71406868483239E+016
4.71298065668842E+016
4.73815145703391E+016
4.79945453529468E+016
4.83664236290188E+016
4.86556442446014E+016
4.85130638400638E+016
4.8657592951725E+016
4.8502670735405E+016
4.89180701372356E+016
4.8783771737973E+016
4.80089982641129E+016
4.80633996713112E+016
4.78672298208768E+016
4.73604035765009E+016
4.67194413251227E+016
4.66609801114171E+016