/*--------------------------------*- C++ -*----------------------------------*\
| =========                 |                                                 |
| \\      /  F ield         | OpenFOAM: The Open Source CFD Toolbox           |
|  \\    /   O peration     | Version:  v1806                                 |
|   \\  /    A nd           | Web:      www.OpenFOAM.com                      |
|    \\/     M anipulation  |                                                 |
\*---------------------------------------------------------------------------*/
FoamFile
{
    version     2.0;
    format      ascii;
    class       volScalarField;
    object      dnp6_s;
}
// * * * * * * * * * * * * * * * * * * * * * * * * * * * * * * * * * * * * * //

dimensions      [0 -3 -1 0 0 0 0];

internalField   nonuniform List<scalar> 
6400
(
97711708651268.2
158648753558099
214631042484425
271675515412449
344940979200551
401877729493409
443466915697797
509532916702359
559522042264156
622020580143787
656438447316164
741049239630382
765956459734120
806769751823062
877580401145845
915375518501780
994449755558182
998748956222884
1074805018546279
1.08962415943792E+015
1.1700230937646E+015
1.18878721224135E+015
1.18951021551341E+015
1.2243114199911E+015
1284568162490266
1.28183142527256E+015
1.3351153107117E+015
1.34508208064996E+015
1.38796248276505E+015
1.41794528288603E+015
1520014905890533
1.45090258640144E+015
1.48359300951441E+015
1.50621961527005E+015
1.53749799843559E+015
1.4895274591904E+015
1.56347759252002E+015
1.52253813878629E+015
1.53187895287157E+015
1.50239109458783E+015
1.58716201514351E+015
1.5180302861706E+015
1569644956001780
1.50219214737874E+015
1495845246171710
1.48521855378379E+015
1.50961142256647E+015
1496495463879464
1431638673716487
1475421616828902
1.40756606141673E+015
1.45971934442374E+015
1.36932937830404E+015
1347707213335744
1.307602367406E+015
1284767109699355
1243065833725943
1.22766926069084E+015
1.16339960741323E+015
1.12968533402909E+015
1082204884250195
1.04624396311464E+015
1.00230574413172E+015
956193662961675
924376666620314
854711176842530
841478761252642
747735806804150
745954986664256
672572580736178
622661093109634
566868531887585
495727921339971
454163482227445
390181089310268
365264649701719
282006213172210
222427832132328
172283430700022
98341061163922.6
148293793943570
232281541827372
342322154597007
448196036428969
526564738748749
625635596504061
688735828381911
787331153783791
907208978187229
938681456190900
1.02432580351819E+015
1.11306596351374E+015
1.23156571456641E+015
1.24838403229086E+015
1.35139501526032E+015
1464149559104183
1.51664736044888E+015
1597808117015241
1.62841202061826E+015
1709563072442708
1747561989378685
1.85103394758872E+015
1852489658874736
1.900348593588E+015
1.998618810136E+015
2.020896045183E+015
2080196870604350
2.08996954570447E+015
2.21367589079013E+015
2.18486736443987E+015
2.24268821672044E+015
2.21158451890922E+015
2.35754868955807E+015
2.26883764378824E+015
2318525922350929
2323591797626266
2361265605708366
2357475903993770
2.40929922577595E+015
2.38672599610079E+015
2.41979975651908E+015
2.42866503825092E+015
2405320281594171
2356976109785572
2.31281953410975E+015
2298175078572422
2340201463399711
2257706304821171
2269080262335911
2243183158557682
2220328491367227
2.19333475175353E+015
2.16295890958533E+015
2.08779568351735E+015
2.02180343855128E+015
1.96420579533458E+015
1.91560444786545E+015
1.85750701044054E+015
1.83694751471104E+015
1.74169062052509E+015
1670103591849761
1.60603288578123E+015
1.534644804315E+015
1.4424740180554E+015
1.42696584048837E+015
1.36174027013294E+015
1.26593991040021E+015
1.18280909122678E+015
1096732882884637
1.06369308906302E+015
960517125481144
862106190175493
756994130583213
685067435941150
617003228577984
515496480604072
430669272545333
331923523643898
277026710099844
143884444458227
201872703536684
327285142249555
441196006091612
598108096085494
675532527017744
798884649023807
911401426690956
1.03665082573979E+015
1.17390984289826E+015
1.23538453050673E+015
1.33576552841946E+015
1447219636847814
1.59823512565914E+015
1.65372683988208E+015
1.82940207787852E+015
1.93417447150406E+015
1.99479028945378E+015
2.07967281454138E+015
2.18078166809712E+015
2.2934197550381E+015
2315818299358939
2.46850300377823E+015
2448093931548281
2527716486522417
2.64354743355073E+015
2693740358692569
2.77336776603766E+015
2.91187384253115E+015
2903100755847425
2.89615701301313E+015
2951114966431194
3.04331001454556E+015
3054446205883580
3.07587427601374E+015
3105323315329848
3.14766510426911E+015
3.17196092563272E+015
3188153287504172
3094468561507120
3.13612616614195E+015
3.11713883860135E+015
3167137668905051
3.1648424974441E+015
3.17030141476666E+015
3096768585339026
3.04934151164062E+015
3.05854645933919E+015
3.01053224875542E+015
2.96178047778674E+015
2.9667396009011E+015
2953570266133608
2884870398175548
2855780434309990
2770242839143676
2.68477317717071E+015
2.62541412329792E+015
2504929752525309
2508763125578485
2445978297812605
2338561362017466
2.19508645766771E+015
2170698441255980
2.07445166339554E+015
1918098566535488
1.86312120363361E+015
1.80522271341779E+015
1.67614964605768E+015
1.57581231948354E+015
1.44514282207976E+015
1.40261179067332E+015
1.29663115668039E+015
1.19131044513711E+015
1.01326725011542E+015
972245306075481
812912853450050
689410307944432
598389533600790
448689037317833
343910820847146
203656435099149
244978740901101
396307692876015
578446288982368
737409961415341
879298140463344
1013669996904550
1.15683920188425E+015
1.28593653109912E+015
1483884151771610
1.59527032700662E+015
1.69184221372094E+015
1.84736555514796E+015
1.93355822039298E+015
2140657412683558
2240844315758149
2372358125707810
2.48749033131883E+015
2.58469787862805E+015
2.75408929623985E+015
2811691791827512
2.98263111577345E+015
3.05559136542858E+015
3085680917710535
3216510543355769
3293245937612638
3422857618148571
3.36827329729391E+015
3485521136640616
3583495358560463
3.59275368233953E+015
3740615130031149
3758670802348704
3.74941733094059E+015
3.85625683459228E+015
3.84959452927328E+015
3.89212070830877E+015
3.93729142951385E+015
3.94987847976694E+015
3900534719541940
3.8982589575648E+015
3.93186647878796E+015
3.96524593857632E+015
3.93694205880521E+015
3.84114169907248E+015
3851399611267939
3.77932734549727E+015
3740974205481700
3.77107831487652E+015
3.72516518091556E+015
3676626914268829
3636793801112471
3590642900974803
3.52417997602625E+015
3428229192793971
3353196980741740
3272846570124597
3.20107029898209E+015
3090790464324452
2988327799272723
2.92273830109578E+015
2777099239300812
2674733621668150
2.5401579656469E+015
2432396511514073
2.36291055946156E+015
2211162362636278
2.09331282929136E+015
2013374870205251
1.84085367332851E+015
1725871891217043
1606489008650851
1466818363128546
1305729352217989
1.17091107764907E+015
1.03446240643982E+015
857530404366448
732552738091000
570177848877795
400794680296613
249493872073228
288028975999555
526739424103071
665585166563300
862140156772166
1.02683933167204E+015
1.22869796333296E+015
1.3893308513739E+015
1561517234654856
1.72707527921348E+015
1.9057929537977E+015
2.08026965616865E+015
2180602130371844
2319923405185505
2.54678630436923E+015
2735839529084159
2.86556766652297E+015
3.00569928728585E+015
3.14281273331572E+015
3.2169132901449E+015
3.37069948277061E+015
3.46276836924018E+015
3600430133187785
3715149887267772
3829505713526254
3969569401095784
4.06893625347925E+015
4.12776154654717E+015
4.20220662171404E+015
4.26110470034626E+015
4.37986647943042E+015
4385131301914840
4.40763659839665E+015
4514888553579376
4.46778173636389E+015
4565620091897041
4584985904372011
4624751084335021
4750277068528202
4729115878800479
4772530041720437
4715490421163367
4743663286918735
4733318032046113
4647799846363612
4510443781786072
4571835979088331
4568036572631829
4467092699688509
4518294917988654
4.39315227110079E+015
4.37255395640366E+015
4198873042869063
4.18555328460201E+015
4233824670846313
4.08576912831656E+015
3.96472188251335E+015
3870464576743798
3.71788662448548E+015
3.58478123686311E+015
3.5069152401741E+015
3.37467357458143E+015
3155244507698298
3036424500162699
2.9040712300381E+015
2792534631303538
2.661840872045E+015
2.5354948371607E+015
2445721122152075
2.19943418204194E+015
2076232483535433
1.88797990002781E+015
1707122329853154
1588428483962343
1.36084258150656E+015
1.17417187092975E+015
1.02637835643147E+015
859762495005006
690589434086105
470516942814551
287194368195572
347357945172433
591062453461175
806735785226388
1.03245837723607E+015
1.18614267007175E+015
1.40275736180192E+015
1.60424236089943E+015
1.83028035702108E+015
2.01346706525337E+015
2.20457284288158E+015
2382979965724775
2.54279280307459E+015
2.73583467671321E+015
2979554712588998
3169296973979308
3.24848281556764E+015
3482371947891868
3590201335218044
3702742374739960
3.94661283411531E+015
4.10792505408972E+015
4.20827208540578E+015
4291310709531094
4.45429214511347E+015
4563480196306598
4711118434934365
4776911732691346
4878525232826233
4971545184002669
5073396450314274
5041758991698186
5140213598342419
5259193734119479
5307523348815220
5358473243825788
5397195164033819
5445039541634220
5529422272513628
5607011684058295
5448193582753921
5496620244868728
5501812281788854
5420195402352877
5430579476193125
5388557943736789
5392633935337635
5309755439453778
5250168324146179
5216250251182002
5131139664659585
5071940739028258
4966935431596951
4834266757360385
4803342597274447
4700341319046892
4601255904178719
4.49965210878574E+015
4320216283300423
4174878068504562
4.0977253703457E+015
3965410919188731
3743128658185004
3.61719022246079E+015
3.38595048467711E+015
3257653796669541
3.1235973443403E+015
2990865589281344
2.76262946911781E+015
2569534219398710
2415025023500946
2.20848870624096E+015
1.99756584563911E+015
1.80368451182556E+015
1.58710378669207E+015
1.37590919331683E+015
1.2131315573145E+015
1.0087205785321E+015
805401383214206
547813271153632
343778351120119
386356935761903
645578841122483
916316878466737
1.16402556326621E+015
1.34537322290716E+015
1.58084908053315E+015
1.8116132859634E+015
2.06141334264379E+015
2266853024068306
2.52807556197297E+015
2706526356154745
2912184394272166
3139794558582713
3347053879114751
3509525815747024
3748364366443709
3864185608730115
4.10778433533207E+015
4.34198887176827E+015
4504800474367282
4615793607555068
4808689910065081
4879301612178775
4978435550756481
5146424633162755
5349399310142953
5555139838566581
5615357762098120
5551209418094338
5749428771540217
5839197634177885
5904316452372344
5953713588677830
5989087372928024
6095257249388141
6134027693305708
6279987011583604
6265138756466237
6179057695753145
6228988592863500
6243982419109468
6271349791286573
6233452774140618
6237674336870064
6130048749123931
6096518865836023
6100594857436867
6052459337579264
5936245053245634
5855550124290800
5714297605837691
5635349530426076
5693529458157193
5412868322213261
5279525168414174
5316112045402715
5172481865182446
4935831733785739
4708852377699134
4686866284909334
4538660318880021
4.33847575519802E+015
4.08331382861414E+015
3886089211213706
3722122744327790
3515144861311047
3.46905704199577E+015
3.21895613831628E+015
2936354053990989
2789157381119980
2498490656270164
2287383405572089
2061034857709423
1830615170616865
1.55318571372789E+015
1.36870342245105E+015
1.10499647061826E+015
932780973111581
669763057954166
413943635106102
435221281736706
746838118177773
1.0441137722661E+015
1304103807948604
1.52922955833102E+015
1816436542691067
2.07524259986094E+015
2273830733499277
2.58855066116504E+015
2.83457072087273E+015
3.03680783746802E+015
3.28080445848815E+015
3.57629444006564E+015
3713150710434976
3.94520564653883E+015
4220776645352654
4.4349166278966E+015
4645373660886919
4796209611972968
5027784163352430
5149966863958729
5316354663950385
5529713414770832
5651459401991323
5803532707670487
5936536195502837
6176631510276450
6136696497330070
6417891394078874
6546915937729447
6508679254616753
6577874064412060
6641051934225164
6718398727222161
6843881040076761
6816368096771053
6938017036572478
6999933289937702
7033948410320950
7028416707434086
7044914768675604
6983532276115253
6946411638321838
7079560697282791
6894151603153857
6751831563091000
6831895683821894
6728200516548004
6678851903952052
6483543973078207
6457777883315721
6422549670194126
6179639980267549
6067598734953832
5934595247121482
5850891848175548
5716675267604850
5645927699104461
5430870618450329
5162097791342197
4996631941831684
4771942904835077
4567502811826956
4.30853662641562E+015
4.20155155163533E+015
3.98454381785794E+015
3.78400017872539E+015
3601201660169374
3.38643572177244E+015
3.09334766381689E+015
2828141329359495
2556922907290856
2342574272795918
2029819555366281
1.79951147280565E+015
1.51818070967015E+015
1.24898572628908E+015
1.04714650411197E+015
761186579086940
447121236262793
471768854520525
808036220641896
1.17379338599538E+015
1.44980109819502E+015
1.75563148227417E+015
1964928798606630
2.29770439858994E+015
2591107860657471
2.82592864820475E+015
3.11496982878518E+015
3430606854561130
3579943423022583
3923898885682501
4.24095765614779E+015
4.50199580395622E+015
4553707521206474
4850463971602793
5232263075328180
5356144105768161
5543639719407053
5766606164715208
5913681528312383
6020045499610635
6319145645177441
6406682417176551
6574865594420959
6800549367463011
6854459208755146
6969072210674158
7110907013641674
7269579543817444
7327856518967627
7521854309684058
7536993707058627
7537236325606299
7616427019565580
7705613597688843
7791840229530540
7847302829527757
7812899519468239
7776652308446434
7783251532943045
7673199759720214
7646948432862388
7628800565496718
7490313898487040
7457172204875403
7352263944863167
7367743008204473
7275353865251975
7118379664909890
6973390820822672
6826121362387362
6757897026782735
6600194970797641
6478351936158084
6372376154536100
6198418655857160
5920280752808989
5777766617907999
5468913206724886
5386568471645901
5163019741823341
4896139339387029
4552135353017578
4.35301345857437E+015
4.20665139350734E+015
3914126210582380
3.69770076131939E+015
3.39039525647041E+015
3.17846795508121E+015
2921437865680276
2585940085592113
2.26302935575704E+015
1.99104911144872E+015
1712697704078596
1.4048729955376E+015
1.14436860853404E+015
798365445331795
501507095145456
530533978188620
856196002354266
1.24763191479308E+015
1.5769720361414E+015
1914740725835744
2.18927331726555E+015
2.51690540403827E+015
2788803158040383
3.12061313620397E+015
3440001044726889
3.78508710981895E+015
4.02218365934337E+015
4226026910724218
4612940413434476
4884056935713093
5142882402366783
5401368203053733
5649324358771832
5887139059197353
6112434642563134
6383973321114698
6491016624346423
6701949189690177
6949274537184336
7138419956947381
7368082674171209
7478765255617977
7630790037587607
7781165013433086
7882094329263545
8024074703359662
8119909029689064
8232775178064859
8255241655579043
8401395068695073
8352143503518190
8476995008148851
8467581408499278
8449870254519414
8523286627044166
8605776933251754
8519307682862389
8508341324507733
8417019703164981
8397949885318168
8279066796960175
8217829875528425
8119860505979531
8073617410793748
7961527641770500
7870642733813550
7736280582114251
7601675811867285
7468623800325398
7230129767966403
7213922848982089
6949565679441540
6654298906927912
6543276659514407
6303132821031260
6037659606171432
5739918124471578
5485362744256870
5267054575063968
5068689650489488
4882795319265214
4592298427398766
4.33921331558294E+015
3.94132860214707E+015
3743089839217377
3459978255941985
3.14183255438314E+015
2733617143187507
2467585905668039
2.15197314174686E+015
1877523040623262
1542442564437090
1.21669319759428E+015
902429392798142
522372290245022
600116977660196
940869875490878
1.35269059830487E+015
1.69763594463928E+015
1998939066618923
2383314779320559
2737159373983480
3032217494546112
3431504543187507
3752896480914173
4.19673799964957E+015
4381559956893148
4568366533856659
4944032240696964
5277535696323284
5531751410571254
5836237687896318
6094480870035601
6382129420152410
6720339675603516
6929331292565914
7178549064731895
7310290936116365
7366093202080321
7681497314050506
7934839601526866
8170955972118702
8233842699674603
8497763155829348
8542065302633776
8647992560546225
8712237951969075
8826462764211816
8980525541981868
9.11974006463456E+015
9.14885429035488E+015
9.16506120933919E+015
9.31165133584103E+015
9.23362521091056E+015
9.44606201124986E+015
9.37099583260096E+015
9.27647164642897E+015
9.33353552884081E+015
9.19660162053621E+015
9.13458831975192E+015
8935398492115364
8984504486163647
8910602876543555
8775658440329850
8700204072004674
8605971028089888
8394213559684059
8223167483577151
8050471601346090
7932753082016910
7789802233730115
7389724248623317
7315288878198353
7076891893258427
6852954973759595
6642750264058849
6251260975539548
6068326590596842
5767285496648682
5520785052216598
5357745388182779
4989304861692068
4632189769006565
4.3983151937952E+015
4.03105379344616E+015
3754492910957837
3398076559689621
3.03215926609467E+015
2714993743468406
2387667356065748
2.04885055424547E+015
1641712369401491
1.33943392086022E+015
961521566268495
563559214897375
687144250709200
1.040168794681E+015
1.42938717359412E+015
1841969718647792
2212273555584604
2558465961254033
2.95643801736706E+015
3.28418656104266E+015
3.61092095918901E+015
4.01293018793526E+015
4399474910453053
4736879672325900
4935249449271333
5308784965263100
5655972106977973
6035670134080543
6393483968183336
6639790317777284
6921567499040494
7187622998414730
7410735014851485
7769519323144955
7813869993658919
8109185289882078
8389555283568808
8571858860287575
8805160855726445
8932244450995664
8989890617921906
9.26327319743576E+015
9.43199013548504E+015
9.56504214702692E+015
9.75501246985204E+015
9.76825944255479E+015
9.78019627510012E+015
9.85555359600623E+015
1.00748807630993E+016
1.00616337903966E+016
9.92368088419179E+015
1.00263570535655E+016
1.00346546078958E+016
1.01233559489237E+016
1.00091796603905E+016
9.91368500002781E+015
9.77083119916009E+015
9.77616880720881E+015
9.67936400668873E+015
9.52292356715152E+015
9.49890433093225E+015
9.35745771764101E+015
9.27263827337579E+015
9.09557525728669E+015
8884448597104796
8807878183460343
8624167419165093
8349135033527090
8185513084978865
7876562626376683
7607207514754144
7450718551507401
7238087656329959
6888813995105128
6618633980420514
6306141291022363
6010680423670598
5683096860607409
5406220574007120
5014828332906887
4668174951996886
4370661531731840
4014968183735677
3.72623270252531E+015
3286612746519357
2.92464528288047E+015
2.55652986524363E+015
2.18437242260263E+015
1.84310032107993E+015
1.44154236283235E+015
1.02896467014963E+015
618905357991712
712158222973913
1.13106825975081E+015
1.56355523045528E+015
1.95097823211564E+015
2365894767597898
2.77713805826844E+015
3159994978861664
3.64980786000946E+015
3.89878301362777E+015
4.31523289833129E+015
4718382434251586
5087080136402826
5442855974705197
5787277264976639
6058136611594729
6489657960479475
6753529892924686
7039140447241072
7345179483271220
7636467311603071
7939789019899322
8393388656621985
8516493307709424
8771873590986207
9.13813055054789E+015
9.28248858641117E+015
9.49007301579709E+015
9.62690987668261E+015
9.81062064097787E+015
9.99505926091612E+015
1.01566917373735E+016
1.01939579462955E+016
1.03200225436645E+016
1.0633728325801E+016
1.05487147866976E+016
1.07177228670041E+016
1.0721895906024E+016
1.06966635770664E+016
1.0766246576538E+016
1.07450902391812E+016
1.08659142759206E+016
1.07250499471437E+016
1.08118588634998E+016
1.07253896131105E+016
1.07319403138975E+016
1.05943270736595E+016
1.04767056017494E+016
1.04159053937034E+016
1.02823196213567E+016
1.01646011020275E+016
1.00325195646763E+016
9.82838031866726E+015
9.69309621648682E+015
9.41549207424352E+015
9.24153457556458E+015
9.03953037277506E+015
8802977288797422
8516299212871288
8231998798712317
7965603633371343
7708427972841807
7557713331029592
7112653867184893
6874450977083102
6480486979377574
6150622801966293
5781405896123040
5330038350038938
5102995913129937
4681140487184336
4297885672172935
3956434032924964
3.54160484011987E+015
3078091809539437
2.75787899795444E+015
2300310121791913
1.95384113097814E+015
1.54305396317722E+015
1128292703565469
645239175155746
753539242464401
1.2460160752656E+015
1.67657665470158E+015
2083074326579709
2.56816585078985E+015
2.9998230660613E+015
3.36795789318194E+015
3.79903767630993E+015
4112030159916287
4645519232015520
5076599015143510
5439750457295029
5879617884219602
6247233507648237
6504020978501503
6843347279271888
7368325292718879
7568922307931918
8032760447366226
8254125610259763
8682881107701082
8804869713469242
9.10067024678774E+015
9.34838378395817E+015
9.70430519338914E+015
1.00737647177801E+016
1.01460650449855E+016
1.03957680542469E+016
1.04099855011403E+016
1.07141806362081E+016
1.07726031824869E+016
1.09858163621788E+016
1.11876749938397E+016
1.13182522961954E+016
1.1237508843531E+016
1.14622221423824E+016
1.15305920491156E+016
1.15295730512154E+016
1.16282702764073E+016
1.15843077955696E+016
1.16720871861164E+016
1.16217195756202E+016
1.15545627616253E+016
1.14610575733535E+016
1.13189801518384E+016
1.11994177315469E+016
1.11662760379353E+016
1.10730619919207E+016
1.10221120969101E+016
1.08533951588608E+016
1.07008851397959E+016
1.06018967723468E+016
1.02693637909111E+016
1.01129233513739E+016
9.90000131393926E+015
9.66073090222772E+015
9.38856141545222E+015
9.2193592403076E+015
8826948001307156
8527314094935479
8300805418831351
8003015413421962
7643163583518748
7318394395608522
6888231710590725
6501982982701080
6165616628212259
5833714455000556
5480607420722550
5069271935003894
4548530041399211
4231282028466738
3.81575409424435E+015
3336917276193125
2.86984745770386E+015
2.52592110926966E+015
2023530882610691
1.62247757094226E+015
1.17384676207587E+015
704593376657582
742082794643453
1.29279293125626E+015
1.75703866985065E+015
2278285210034487
2727328470431917
3198246219087218
3.66392340711286E+015
4.06823265969101E+015
4.43551346952386E+015
4945051238597174
5273411181012905
5784171747566470
6269311795486151
6646195447435755
6977563859842585
7347605668747914
7771799937493047
8062311386472356
8386013052772835
8787061512070309
9.19398134022138E+015
9.38375756820837E+015
9.6672816030148E+015
9.95260101507398E+015
1.03663141625598E+016
1.04867985333324E+016
1.07908480972717E+016
1.11185772314635E+016
1.12197006421321E+016
1.14028291219129E+016
1.1693777284278E+016
1.17397292372066E+016
1.19330476959895E+016
1.20583844377155E+016
1.21928921605434E+016
1.21372354657081E+016
1.23070684490767E+016
1.22511691356936E+016
1.2453707099288E+016
1.23811641535349E+016
1.23507883113667E+016
1.23313788275531E+016
1.23849490028785E+016
1.2141408504728E+016
1.21552377619452E+016
1.20005926996607E+016
1.18875809801563E+016
1.17750059740377E+016
1.17137205288964E+016
1.15901791644232E+016
1.14461607945266E+016
1.12130528939259E+016
1.10014895203582E+016
1.08216606528257E+016
1.0605827192819E+016
1.02458297917872E+016
9.89039361945155E+015
9.69091264955779E+015
9.37725539113083E+015
9.09795291905384E+015
8802346480573480
8436040997302260
8081381204319168
7690037486928468
7304565138391367
6924187779355324
6583163148751252
6214819669679609
5846330619479364
5285736203234510
4972030421098008
4514524625757872
3.99814016126933E+015
3.60488946209395E+015
3.15158096762849E+015
2.72564469771109E+015
2.19571726589165E+015
1.75900873245773E+015
1.27211212625292E+015
757649200661920
791033512821226
1.37245915756897E+015
1.86086970351124E+015
2357733079654300
2827976348747080
3.38513528635694E+015
3888175730723662
4365323923683114
4718731804960228
5165494451009568
5665822420013350
6136599449911004
6545120560476694
7000224432194905
7402777126487930
7892429879394260
8216034498275672
8538037834742464
8953497835771500
9.25381107407665E+015
9.72817885847981E+015
9.95871500247525E+015
1.032361329817E+016
1.07095708838024E+016
1.10173082496663E+016
1.12079579044249E+016
1.16368104492852E+016
1.148745447134E+016
1.18434244044805E+016
1.20702727465513E+016
1.21878456947519E+016
1.24900513577289E+016
1.25377016404912E+016
1.28557260327762E+016
1.28079301788853E+016
1.29573832042496E+016
1.31099902707337E+016
1.29401087636556E+016
1.31266824268133E+016
1.30664645032818E+016
1.29933392730142E+016
1.31289630411614E+016
1.30715594927829E+016
1.29795585395066E+016
1.2998046072839E+016
1.28708654301507E+016
1.26981695479197E+016
1.24513779612304E+016
1.24603063237846E+016
1.2328370357562E+016
1.20317449211814E+016
1.19848224940622E+016
1.16748045138503E+016
1.13423200561242E+016
1.11094547740711E+016
1.08794523908805E+016
1.04337135951023E+016
1.03671390656219E+016
9.97594091935978E+015
9.59604879741907E+015
9.3120395255173E+015
9.03923923051786E+015
8731259246106354
8114231755673601
7850990631452331
7371285239000446
6969460400350428
6543325183223940
6095014630840472
5706436764893203
5178886994840917
4742100823471744
4346943142511682
3.82097039301925E+015
3318182271942096
2928784355303705
2330559802315330
1.86936620505062E+015
1.33698347352876E+015
780566948674769
794056539925186
1442207137652965
1.99190798110746E+015
2523684166260151
2974910993586606
3483177441470130
4.09225674828123E+015
4601513079839249
5063449089859830
5537234589748582
6057020566275449
6565549042190457
6905845817151519
7402437460521193
7885345417802315
8310558684447661
8720826648556571
9.04549878904773E+015
9.56208220074536E+015
9.84458723765158E+015
1.02040508778785E+016
1.05591959079569E+016
1.09129822741684E+016
1.12780746647013E+016
1.15919260179664E+016
1.18087299521638E+016
1.22063817517939E+016
1.22925113362165E+016
1.25813729790716E+016
1.28591226924435E+016
1.29571891094115E+016
1.31911219130743E+016
1.32352299650406E+016
1.33998223877795E+016
1.35550982582879E+016
1.36666542665063E+016
1.37710287657137E+016
1.36838316596813E+016
1.38546836409501E+016
1.38785087823312E+016
1.38539072615975E+016
1.37540939910863E+016
1.37904867732367E+016
1.37597227413923E+016
1.35887737127044E+016
1.35646089053565E+016
1.34538778002002E+016
1.31366783109773E+016
1.30895617890199E+016
1.29456404665424E+016
1.28124914075815E+016
1.26134471510735E+016
1.23869869986789E+016
1.20789099668484E+016
1.1679414266256E+016
1.14429097059879E+016
1.10312345543025E+016
1.08375279058433E+016
1.05334298181945E+016
1.02267599739404E+016
9.85545654858716E+015
9.43495008176661E+015
9.1593354116142E+015
8564628827567028
8114862563897541
7802127255951719
7350856757286683
6936706896415063
6472868756980755
5912808101540772
5519280817221048
5064807753726778
4546351326841140
4085934108928970
3542803375745356
3.01463250221104E+015
2506632934729948
1.93828442970158E+015
1419740660138781
836767109056903
892976974180943
1.54540251071866E+015
2.07056006189092E+015
2672142455579041
3207543361833908
3746884393302926
4278330617230783
4878816375083436
5319654276198687
5819642579235733
6315603414381466
6821948323367450
7281225234105574
7866081505117366
8349959936589166
8728493394662923
9.25288912359551E+015
9.49604143206976E+015
1.00820137484008E+016
1.04959209907248E+016
1.07372293982367E+016
1.11086783947185E+016
1.13916686687201E+016
1.18530806226777E+016
1.21631471265992E+016
1.23485076970186E+016
1.2802446999708E+016
1.29853328609412E+016
1.30956272527116E+016
1.35525265016826E+016
1.36188584126154E+016
1.37294439466431E+016
1.4085899116879E+016
1.40826480283402E+016
1.41578597781177E+016
1.43410367816081E+016
1.44521560764407E+016
1.45385768031205E+016
1.44959729861497E+016
1.45391590876349E+016
1.44928674687396E+016
1.46169911177272E+016
1.45768620099427E+016
1.43453553917566E+016
1.43616108344504E+016
1.43029941933335E+016
1.41515516958783E+016
1.39600286143481E+016
1.39425600789159E+016
1.364336288593E+016
1.33952611590833E+016
1.31861724947019E+016
1.29100725874541E+016
1.26012676999805E+016
1.23525351649099E+016
1.20843446223162E+016
1.17944639815608E+016
1.13863795843809E+016
1.11296406372372E+016
1.06379013648209E+016
1.02581062902993E+016
9.97171935663033E+015
9.42903018920347E+015
9.07126487881021E+015
8615578722577596
8265965395386029
7719297283777394
7268803164464904
6787884679274669
6233452774140618
5912031722188231
5341926658874736
4738461545256703
4261230861991045
3757302433739849
3208324593557404
2.63372138237012E+015
2032798911131661
1.4767123475025E+015
882626866937368
957770683521526
1.56693248063884E+015
2.18818638617199E+015
2787366856238180
3408222867353154
3989163275005563
4505125583221160
5035936146554123
5518407390449438
6096227723578818
6734848264754144
7099164275934476
7708427972841807
8217926922947493
8666383046459563
9.10392133532651E+015
9.66165285270887E+015
1.00260173875987E+016
1.0475492509011E+016
1.09483560584186E+016
1.13035981359161E+016
1.17252691717655E+016
1.21395646037657E+016
1.23526807360385E+016
1.26502766466097E+016
1.30687451176299E+016
1.33543071482367E+016
1.37700097678134E+016
1.38324597819835E+016
1.41913896614056E+016
1.43973728083769E+016
1.45836068055679E+016
1.47482477520164E+016
1.47765855983841E+016
1.4909540562507E+016
1.49627710718656E+016
1.52688101078958E+016
1.53079202177801E+016
1.53376167280148E+016
1.53388298207531E+016
1.5451065160905E+016
1.52887048288047E+016
1.53140342051813E+016
1.5053510408694E+016
1.50674852370397E+016
1.49719905766771E+016
1.48339891467627E+016
1.46343626057404E+016
1.46498901927912E+016
1.42884856041829E+016
1.41242813711203E+016
1.37494842386806E+016
1.36663146005396E+016
1.33983666764935E+016
1.30735974885833E+016
1.27957022040828E+016
1.23692273209895E+016
1.18916084480476E+016
1.15203535464039E+016
1.11685566522833E+016
1.09945021061853E+016
1.03477295818083E+016
9.93983927946657E+015
9.54500185498944E+015
9.0636466564134E+015
8599857040688621
8175614248233955
7533111810295918
7182139819237402
6723445193013686
6199146511500167
5563000679511070
4987218342182112
4.43640145340833E+015
3.90951160580571E+015
3310399068932863
2.73359773370369E+015
2.15247293595506E+015
1548867103579375
940666075910836
1.00029201018606E+015
1.65567264063439E+015
2291245892850985
2944569118015074
3.49463874166203E+015