/*--------------------------------*- C++ -*----------------------------------*\
| =========                 |                                                 |
| \\      /  F ield         | OpenFOAM: The Open Source CFD Toolbox           |
|  \\    /   O peration     | Version:  v1806                                 |
|   \\  /    A nd           | Web:      www.OpenFOAM.com                      |
|    \\/     M anipulation  |                                                 |
\*---------------------------------------------------------------------------*/
FoamFile
{
    version     2.0;
    format      ascii;
    class       volScalarField;
    object      dnp6;
}
// * * * * * * * * * * * * * * * * * * * * * * * * * * * * * * * * * * * * * //

dimensions      [0 -3 0 0 0 0 0];

internalField   nonuniform List<scalar> 
6400
(
1141801000000000
1704118000000000
2690290000000000
3764749000000000
3897179000000000
3831042000000000
4706266000000000
6134847000000000
6841880000000000
6416260000000000
5384629000000000
7326382000000000
8068852000000000
7874410000000000
7800687000000000
1.164732E+016
1.077772E+016
9.727545E+015
9.048199E+015
1.15552E+016
1.189007E+016
1.360657E+016
1.27287E+016
1.295083E+016
1.309842E+016
1.411761E+016
1.3995E+016
1.676729E+016
1.534137E+016
1.472402E+016
1.473026E+016
1.622567E+016
1.484603E+016
1.540009E+016
1.664187E+016
1.555182E+016
1.478098E+016
1.362791E+016
1.551673E+016
1.557227E+016
1.390226E+016
1.47364E+016
1.458165E+016
1.616408E+016
1.599574E+016
1.441285E+016
1.553497E+016
1.508318E+016
1.470627E+016
1.650793E+016
1.501685E+016
1.618844E+016
1.489367E+016
1.346924E+016
1.205369E+016
1.125219E+016
1.14695E+016
1.050021E+016
1.223238E+016
1.129274E+016
1.117368E+016
1.129828E+016
1.073302E+016
1.012299E+016
1.011058E+016
8547134000000000
7680403000000000
9.022312E+015
6490125000000000
6180594000000000
5569056000000000
5933507000000000
5236436000000000
5449993000000000
4736815000000000
4.235616E+015
2943597000000000
1937230000000000
1.783762E+015
803078200000000
2.026273E+015
3280183000000000
3290554000000000
4753149000000000
6443603000000000
6502925000000000
7688427000000000
9.725372E+015
1.125452E+016
1.102157E+016
1.172307E+016
1.241142E+016
1.521289E+016
1.326755E+016
1.476345E+016
1.725384E+016
1.769142E+016
1.797101E+016
1.833448E+016
1.986989E+016
2.033634E+016
2.316884E+016
2.164866E+016
1.962282E+016
2.008605E+016
1.971353E+016
2.270059E+016
2.412273E+016
2.360741E+016
2.363835E+016
2.457048E+016
2.459323E+016
2.661032E+016
2.34405E+016
2.662637E+016
2.411521E+016
2.305467E+016
2.312845E+016
2.377988E+016
2.623394E+016
2.944496E+016
2.536753E+016
2.36137E+016
2.587096E+016
2.484888E+016
2.598285E+016
2.887781E+016
2.79752E+016
2.516441E+016
2.49805E+016
2.678514E+016
2.505322E+016
2.242563E+016
2.3348E+016
2.22392E+016
2.309682E+016
1.913182E+016
2.001197E+016
1.842109E+016
1.957356E+016
1.793772E+016
1.888845E+016
1.698088E+016
1.7882E+016
1.838896E+016
1.361855E+016
1.516259E+016
1.5996E+016
1.369645E+016
1.151728E+016
1.08771E+016
9.501425E+015
1.105412E+016
7336997000000000
7574149000000000
5703568000000000
5309426000000000
4541330000000000
2943494000000000
1916863000000000
2072483000000000
4017018000000000
6412103000000000
6623654000000000
1.016048E+016
1.048704E+016
1.070028E+016
1.302166E+016
1.415656E+016
1.658482E+016
1.63912E+016
1.8927E+016
1.697532E+016
2.065981E+016
1.999821E+016
1.801899E+016
1.914554E+016
2.299319E+016
2.565743E+016
2.297993E+016
2.71066E+016
2.920838E+016
2.800001E+016
3.191629E+016
3.008957E+016
2.878689E+016
2.986647E+016
3.082637E+016
2.84185E+016
3.310926E+016
3.109332E+016
3.325766E+016
3.282805E+016
3.468127E+016
3.478996E+016
3.623461E+016
3.324857E+016
3.326882E+016
3.51076E+016
3.654601E+016
3.534765E+016
3.396818E+016
3.813056E+016
3.658872E+016
3.662324E+016
3.595399E+016
3.696919E+016
3.554165E+016
3.418426E+016
3.56903E+016
3.316007E+016
3.170106E+016
3.421644E+016
3.242598E+016
2.998668E+016
2.99749E+016
3.049638E+016
2.636621E+016
2.358959E+016
2.515389E+016
2.643114E+016
2.631145E+016
2.852621E+016
2.528075E+016
2.33965E+016
2.388393E+016
2.001987E+016
1.795785E+016
1.81207E+016
1.576098E+016
1.453319E+016
1.488985E+016
1.346593E+016
1.204892E+016
9.868787E+015
7013712000000000
5834688000000000
4762281000000000
3656451000000000
2207777000000000
2720230000000000
5411493000000000
7244433000000000
1.004927E+016
1.103188E+016
1.215914E+016
1.505321E+016
1.781897E+016
2.031794E+016
2.037911E+016
2.074795E+016
2.054632E+016
2.049423E+016
2.473971E+016
2.456718E+016
2.731049E+016
2.724411E+016
2.875515E+016
3.070499E+016
3.574633E+016
3.585767E+016
3.943447E+016
3.799834E+016
3.718185E+016
3.92317E+016
3.98011E+016
3.945289E+016
4.244024E+016
4.165244E+016
4.150134E+016
4.047977E+016
4.119656E+016
4.175762E+016
4.211059E+016
4.612668E+016
4.385062E+016
4.217638E+016
4.538341E+016
4.765296E+016
4.483729E+016
4.754165E+016
4.598134E+016
4.490138E+016
4.819993E+016
4.620195E+016
4.700647E+016
4.29513E+016
4.662309E+016
4.42179E+016
4.486159E+016
3.932403E+016
4.39884E+016
4.318021E+016
3.925458E+016
3.791958E+016
3.703448E+016
3.250099E+016
3.635726E+016
3.522084E+016
3.123001E+016
2.902428E+016
3.094047E+016
3.056386E+016
3.075242E+016
2.822412E+016
2.851821E+016
2.44648E+016
2.253633E+016
1.946616E+016
1.720532E+016
1.994409E+016
1.684559E+016
1.516617E+016
1.384436E+016
1.048303E+016
9.546256E+015
8921960000000000
6784578000000000
5120378000000000
2744726000000000
2907076000000000
5142015000000000
9.85239E+015
1.15443E+016
1.234455E+016
1.284613E+016
1.833029E+016
1.6767E+016
1.993815E+016
2.226624E+016
2.536721E+016
2.389704E+016
2.961798E+016
3.028741E+016
3.206775E+016
3.354021E+016
3.572027E+016
3.551155E+016
3.950971E+016
3.979043E+016
4.309286E+016
4.331598E+016
4.598781E+016
4.740107E+016
4.337075E+016
4.975615E+016
4.857158E+016
5.088111E+016
4.67962E+016
4.985291E+016
5.228036E+016
5.163425E+016
5.544131E+016
5.225824E+016
5.455808E+016
5.539141E+016
5.397392E+016
5.664634E+016
5.627608E+016
5.916664E+016
5.139871E+016
5.2502E+016
5.294053E+016
5.327149E+016
5.609368E+016
5.411425E+016
5.318702E+016
5.331832E+016
5.464016E+016
5.353455E+016
5.35943E+016
4.769999E+016
4.652586E+016
4.640114E+016
4.810613E+016
4.431342E+016
4.195978E+016
4.192693E+016
4.11349E+016
4.348614E+016
3.407456E+016
3.63881E+016
3.782573E+016
3.629184E+016
3.49748E+016
3.162576E+016
2.841214E+016
2.707986E+016
2.320814E+016
2.126359E+016
1.964583E+016
2.159856E+016
1.777841E+016
1.616539E+016
1.630765E+016
1.052661E+016
1.054136E+016
7174820000000000
5720535000000000
4581225000000000
3434913000000000
6709115000000000
7068091000000000
1.18686E+016
1.355615E+016
1.492695E+016
1.962421E+016
1.996921E+016
2.546584E+016
3.246986E+016
3.174361E+016
3.280927E+016
3.535875E+016
3.707563E+016
3.873493E+016
4.002518E+016
4.16624E+016
4.623919E+016
4.521631E+016
4.938337E+016
5.024207E+016
5.13833E+016
5.023217E+016
5.588224E+016
5.024832E+016
5.298776E+016
5.861334E+016
5.745022E+016
6.051752E+016
6.156231E+016
5.890676E+016
6.253386E+016
6.000181E+016
6.414797E+016
6.399102E+016
6.54216E+016
6.790443E+016
6.571156E+016
6.428731E+016
6.358972E+016
6.315235E+016
6.422888E+016
6.707831E+016
6.126497E+016
6.771781E+016
6.385387E+016
6.530313E+016
6.757661E+016
6.486492E+016
6.284993E+016
5.874238E+016
5.83074E+016
5.864221E+016
5.109077E+016
5.608796E+016
4.934325E+016
5.597255E+016
5.127343E+016
4.91499E+016
4.492733E+016
4.277424E+016
4.290786E+016
4.325524E+016
4.527166E+016
3.933759E+016
3.886011E+016
3.488071E+016
3.183041E+016
3.34374E+016
2.948628E+016
2.563597E+016
2.220246E+016
2.078243E+016
1.893646E+016
1.809857E+016
1.274826E+016
1.085743E+016
8956121000000000
6103732000000000
3595971000000000
3519805000000000
6219514000000000
9.974689E+015
1.256697E+016
1.576826E+016
1.790077E+016
2.392726E+016
2.597522E+016
2.9273E+016
3.330754E+016
3.44118E+016
3.715754E+016
4.169363E+016
4.29465E+016
4.507878E+016
4.698498E+016
4.412679E+016
4.77152E+016
5.381634E+016
5.450227E+016
5.417727E+016
5.85378E+016
5.672668E+016
5.976399E+016
6.11155E+016
6.44993E+016
6.149032E+016
7.062619E+016
6.865741E+016
6.736979E+016
7.130002E+016
7.399052E+016
6.958874E+016
7.222296E+016
7.379027E+016
7.058052E+016
7.952085E+016
8.10205E+016
7.499803E+016
7.272526E+016
8.080148E+016
7.50628E+016
7.404358E+016
7.420443E+016
7.528855E+016
7.764653E+016
7.165677E+016
7.057475E+016
7.739196E+016
7.216321E+016
6.721619E+016
6.532348E+016
6.370246E+016
6.655718E+016
6.041004E+016
6.155383E+016
5.74087E+016
5.763954E+016
5.586003E+016
5.4992E+016
5.407449E+016
4.869538E+016
5.044095E+016
4.350464E+016
4.454097E+016
4.282512E+016
4.135765E+016
4.095337E+016
3.377207E+016
3.088502E+016
2.926917E+016
2.4655E+016
2.205695E+016
2.325995E+016
1.925398E+016
1.470356E+016
1.080392E+016
1.084459E+016
7052269000000000
4289797000000000
4981235000000000
7002754000000000
1.213434E+016
1.437795E+016
1.747412E+016
2.416655E+016
2.442021E+016
2.926114E+016
3.034391E+016
3.489108E+016
3.756225E+016
4.233651E+016
4.173918E+016
4.71268E+016
4.903197E+016
4.758319E+016
4.92995E+016
5.340092E+016
5.991359E+016
6.312201E+016
6.093086E+016
6.649267E+016
6.335426E+016
6.407116E+016
6.299137E+016
7.523229E+016
6.611861E+016
7.221667E+016
7.261297E+016
7.533484E+016
7.456081E+016
8.695026E+016
8.271749E+016
8.297128E+016
8.059792E+016
8.357338E+016
8.186791E+016
8.631061E+016
8.631569E+016
8.621257E+016
8.625707E+016
8.459658E+016
8.11526E+016
8.487282E+016
8.414255E+016
8.313324E+016
8.321424E+016
8.096406E+016
8.202567E+016
8.200275E+016
7.712822E+016
7.698739E+016
7.726436E+016
7.620174E+016
6.967618E+016
7.014707E+016
7.106645E+016
6.421665E+016
6.166403E+016
6.294018E+016
6.044049E+016
6.069349E+016
5.501668E+016
5.239752E+016
4.8082E+016
4.565397E+016
4.453781E+016
4.334709E+016
3.534331E+016
3.969944E+016
3.583662E+016
3.012542E+016
2.633058E+016
2.351479E+016
2.144072E+016
1.859345E+016
1.337658E+016
9.277612E+015
8103173999999999
4498625000000000
5364116000000000
8566710000000001
1.406959E+016
1.529046E+016
1.967815E+016
2.348848E+016
2.605335E+016
2.930939E+016
3.863344E+016
3.928369E+016
4.244357E+016
4.269967E+016
4.691317E+016
5.248939E+016
5.485914E+016
5.249171E+016
5.595308E+016
5.924998E+016
6.566676E+016
6.579002E+016
6.392263E+016
6.749864E+016
6.952142E+016
6.831902E+016
7.461046E+016
8.237311E+016
7.829827E+016
7.953298E+016
8.168143E+016
8.792378E+016
8.45632E+016
8.98784E+016
9.019606E+016
9.079756E+016
8.844574E+016
8.49479E+016
8.966083E+016
9.352761E+016
8.680045E+016
9.398234E+016
9.55798E+016
9.435956E+016
8.768936E+016
9.249681E+016
9.593934E+016
9.110627E+016
8.888534E+016
9.193625E+016
8.638692E+016
8.50437E+016
8.844123E+016
8.937295E+016
8.240572E+016
8.046259E+016
7.934823E+016
7.396512E+016
7.377272E+016
7.590109E+016
6.974428E+016
7.086701E+016
6.577416E+016
6.17015E+016
5.858986E+016
5.768268E+016
5.540185E+016
5.266289E+016
4.782922E+016
4.545453E+016
4.442203E+016
4.025458E+016
4.032568E+016
3.452531E+016
3.029439E+016
2.708849E+016
2.235309E+016
2.008864E+016
1.61639E+016
1.160192E+016
8390783000000001
5471866000000000
6410031000000000
1.010407E+016
1.284677E+016
1.579454E+016
2.14287E+016
2.498404E+016
2.828609E+016
3.786039E+016
4.275063E+016
4.164992E+016
4.499749E+016
4.561969E+016
5.627781E+016
5.631257E+016
6.20031E+016
5.974663E+016
6.408399E+016
7.065687E+016
7.008675E+016
7.163088E+016
7.213188E+016
7.530568E+016
8.326655E+016
8.213504E+016
8.217179E+016
8.348641E+016
8.937062E+016
9.240623E+016
9.380902E+016
9.961411E+016
1.003755E+017
9.965292E+016
9.594649E+016
9.885957E+016
9.628264E+016
9.54657E+016
9.499471E+016
9.904977E+016
1.008436E+017
9.973014E+016
1.021773E+017
1.025423E+017
9.922117E+016
1.027579E+017
9.737038E+016
9.333793E+016
1.031238E+017
1.010304E+017
9.371866E+016
9.344946E+016
9.647983E+016
9.077648E+016
8.508898E+016
8.963818E+016
9.141454E+016
8.768299E+016
8.119398E+016
7.487949E+016
7.578154E+016
7.649996E+016
6.927692E+016
6.630717E+016
6.719865E+016
6.555246E+016
6.207717E+016
5.990391E+016
5.913386E+016
5.883825E+016
4.737618E+016
4.705952E+016
4.076045E+016
4.089005E+016
3.522028E+016
2.863758E+016
2.3579E+016
2.134564E+016
1.655901E+016
1.375676E+016
1.140821E+016
6045648000000000
6761304000000000
1.159697E+016
1.531239E+016
1.846104E+016
2.631652E+016
3.127475E+016
3.057884E+016
3.64152E+016
4.210749E+016
4.358635E+016
5.170814E+016
5.772732E+016
5.496369E+016
6.166603E+016
6.465312E+016
6.593471E+016
6.375348E+016
7.19051E+016
7.242059E+016
7.867903E+016
7.899037E+016
8.1375E+016
8.785487E+016
9.51926E+016
9.187001E+016
9.504605E+016
9.873991E+016
9.563075E+016
9.855976E+016
1.046274E+017
1.08475E+017
1.058754E+017
1.051504E+017
1.066616E+017
1.07642E+017
1.112948E+017
1.071584E+017
1.092646E+017
1.034452E+017
1.073031E+017
1.13215E+017
1.097289E+017
1.096764E+017
1.059685E+017
1.079295E+017
1.046452E+017
1.027642E+017
1.054559E+017
1.015182E+017
1.052165E+017
1.017174E+017
1.005467E+017
9.345213E+016
9.515782E+016
9.734282E+016
9.455709E+016
9.081835E+016
8.242008E+016
8.365783E+016
8.766929E+016
8.04268E+016
7.890921E+016
7.032207E+016
7.398233E+016
6.790756E+016
6.330953E+016
6.093447E+016
5.883965E+016
4.971323E+016
4.95239E+016
4.592534E+016
4.253636E+016
3.545807E+016
3.039663E+016
3.025351E+016
2.27236E+016
1.798154E+016
1.491217E+016
1.144298E+016
7207990000000000
6281202000000000
1.322929E+016
1.599692E+016
2.398647E+016
2.776898E+016
3.236596E+016
3.847528E+016
3.797432E+016
4.245016E+016
4.729546E+016
5.293647E+016
5.801775E+016
6.236457E+016
6.498753E+016
7.231081E+016
7.134224E+016
7.054453E+016
7.419295E+016
7.555743E+016
7.532259E+016
8.605775E+016
9.224952E+016
9.18048E+016
9.516861E+016
9.843499E+016
9.698077E+016
1.053622E+017
1.022451E+017
1.083587E+017
1.08613E+017
1.118735E+017
1.108374E+017
1.114943E+017
1.142328E+017
1.148298E+017
1.146697E+017
1.202855E+017
1.195573E+017
1.166988E+017
1.161127E+017
1.224379E+017
1.154931E+017
1.17797E+017
1.166029E+017
1.139914E+017
1.142904E+017
1.151578E+017
1.157205E+017
1.102022E+017
1.184335E+017
1.178943E+017
1.044989E+017
9.994391E+016
9.997694E+016
1.019132E+017
9.963462E+016
9.680023E+016
9.647358E+016
8.968375E+016
9.007727E+016
8.500436E+016
8.156866E+016
7.67188E+016
7.032214E+016
7.404764E+016
6.653411E+016
6.163291E+016
5.942624E+016
5.712091E+016
4.634087E+016
4.726991E+016
4.128236E+016
3.652244E+016
3.265262E+016
2.799872E+016
2.642418E+016
1.893068E+016
1.806371E+016
1.233975E+016
5894824000000000
7298129000000000
1.348027E+016
1.902503E+016
2.312161E+016
2.922213E+016
3.570288E+016
3.770022E+016
3.902123E+016
4.874614E+016
5.544156E+016
5.739677E+016
5.917227E+016
6.475175E+016
7.834039E+016
7.177886E+016
7.965597E+016
8.561001E+016
7.970183E+016
8.095513E+016
8.469401E+016
9.038258E+016
9.72924E+016
1.026448E+017
9.827141E+016
1.022055E+017
1.069786E+017
1.063326E+017
1.16759E+017
1.18058E+017
1.205092E+017
1.188216E+017
1.257705E+017
1.217741E+017
1.223883E+017
1.290803E+017
1.237428E+017
1.230497E+017
1.243961E+017
1.270236E+017
1.29747E+017
1.277106E+017
1.286315E+017
1.265207E+017
1.280435E+017
1.245106E+017
1.17683E+017
1.207093E+017
1.157642E+017
1.203669E+017
1.154344E+017
1.209806E+017
1.100819E+017
1.088416E+017
1.104108E+017
1.092639E+017
1.082656E+017
1.071411E+017
9.918333E+016
9.110309E+016
9.369439E+016
8.905896E+016
8.592205E+016
8.543921E+016
7.899285E+016
7.386633E+016
7.05773E+016
6.584224E+016
6.017787E+016
5.704337E+016
5.568069E+016
4.881866E+016
4.25265E+016
4.010001E+016
3.517642E+016
3.209985E+016
2.826151E+016
2.110986E+016
1.504547E+016
1.182274E+016
7665320000000000
7765776000000000
1.373621E+016
1.978243E+016
2.328807E+016
2.965346E+016
3.598414E+016
4.272396E+016
4.528274E+016
5.083901E+016
5.057362E+016
6.167554E+016
6.16159E+016
7.207294E+016
7.61102E+016
7.725351E+016
8.682086E+016
8.943838E+016
9.279465E+016
9.193772E+016
9.514217E+016
1.020128E+017
9.905351E+016
1.075136E+017
1.08687E+017
1.144649E+017
1.152139E+017
1.220658E+017
1.262406E+017
1.223109E+017
1.305447E+017
1.31199E+017
1.286818E+017
1.245174E+017
1.372891E+017
1.338894E+017
1.398255E+017
1.307975E+017
1.322839E+017
1.310758E+017
1.366817E+017
1.332168E+017
1.294524E+017
1.35247E+017
1.39659E+017
1.3366E+017
1.296586E+017
1.309918E+017
1.290944E+017
1.256049E+017
1.310121E+017
1.281652E+017
1.140727E+017
1.264952E+017
1.160089E+017
1.188106E+017
1.155064E+017
1.131794E+017
1.055157E+017
1.04702E+017
1.001624E+017
1.012495E+017
9.241815E+016
9.052578E+016
8.741685E+016
8.074818E+016
7.097557E+016
6.807373E+016
6.669843E+016
6.688012E+016
5.870335E+016
4.989551E+016
4.545481E+016
3.810624E+016
3.750622E+016
3.245175E+016
2.964527E+016
2.394516E+016
2.126473E+016
1.300944E+016
8686793000000000
9.801116E+015
1.425018E+016
2.096215E+016
2.581469E+016
3.022917E+016
3.817689E+016
4.305396E+016
4.580261E+016
5.525468E+016
5.757609E+016
6.143275E+016
6.889476E+016
7.15439E+016
7.848192E+016
8.2059E+016
9.120511E+016
9.901679E+016
9.371695E+016
9.683536E+016
9.632543E+016
1.066362E+017
1.05872E+017
1.126624E+017
1.17988E+017
1.22751E+017
1.198903E+017
1.269386E+017
1.354735E+017
1.333734E+017
1.298909E+017
1.347129E+017
1.39469E+017
1.396213E+017
1.409507E+017
1.380472E+017
1.377316E+017
1.439261E+017
1.377091E+017
1.421373E+017
1.41244E+017
1.36022E+017
1.38921E+017
1.362327E+017
1.38511E+017
1.408023E+017
1.373567E+017
1.355833E+017
1.352976E+017
1.43995E+017
1.403877E+017
1.290307E+017
1.34514E+017
1.339774E+017
1.258926E+017
1.221004E+017
1.153848E+017
1.14145E+017
1.103598E+017
1.126879E+017
1.092541E+017
1.03095E+017
1.033286E+017
9.345758E+016
8.737996E+016
8.4079E+016
7.683539E+016
7.440242E+016
6.934258E+016
6.758881E+016
5.843733E+016
5.541075E+016
5.317077E+016
4.830739E+016
4.178702E+016
3.568029E+016
3.110896E+016
2.95884E+016
1.9166E+016
1.496181E+016
9.142249E+015
9.38265E+015
1.424576E+016
2.180727E+016
2.99085E+016
3.160756E+016
3.742525E+016
4.208343E+016
5.00769E+016
5.884661E+016
5.878876E+016
6.626603E+016
7.427299E+016
7.706715E+016
8.276967E+016
8.578194E+016
8.858706E+016
9.070312E+016
9.856714E+016
1.004563E+017
1.14896E+017
1.10419E+017
1.189334E+017
1.182361E+017
1.19397E+017
1.261443E+017
1.261806E+017
1.38326E+017
1.345409E+017
1.31782E+017
1.38064E+017
1.465103E+017
1.40588E+017
1.482701E+017
1.507617E+017
1.421854E+017
1.431981E+017
1.455468E+017
1.483767E+017
1.46182E+017
1.530534E+017
1.534564E+017
1.501518E+017
1.503969E+017
1.520393E+017
1.573106E+017
1.477226E+017
1.468523E+017
1.445154E+017
1.503332E+017
1.414807E+017
1.384366E+017
1.41461E+017
1.362916E+017
1.361298E+017
1.272746E+017
1.299366E+017
1.20861E+017
1.190821E+017
1.188666E+017
1.245814E+017
1.096568E+017
1.031352E+017
9.40225E+016
9.584891E+016
8.758029E+016
9.264092E+016
7.752423E+016
7.430397E+016
6.887457E+016
6.362845E+016
6.272879E+016
5.29362E+016
4.758952E+016
3.877967E+016
3.371583E+016
3.22069E+016
2.925039E+016
1.964554E+016
1.370596E+016
8379085000000000
1.129229E+016
1.466435E+016
2.166937E+016
2.987625E+016
3.866539E+016
4.247059E+016
4.829261E+016
5.492454E+016
5.970465E+016
6.078989E+016
7.286977E+016
7.704302E+016
8.139081E+016
8.387744E+016
8.619405E+016
9.309632E+016
9.932809E+016
1.018844E+017
1.077997E+017
1.139474E+017
1.166059E+017
1.208306E+017
1.295353E+017
1.277126E+017
1.326948E+017
1.399537E+017
1.447768E+017
1.475548E+017
1.43791E+017
1.462409E+017
1.503976E+017
1.457928E+017
1.529908E+017
1.557718E+017
1.612469E+017
1.535082E+017
1.544906E+017
1.61244E+017
1.578497E+017
1.576525E+017
1.580404E+017
1.618635E+017
1.556077E+017
1.601454E+017
1.66313E+017
1.641292E+017
1.578873E+017
1.583718E+017
1.529935E+017
1.571528E+017
1.432171E+017
1.477218E+017
1.456144E+017
1.353264E+017
1.362952E+017
1.361681E+017
1.345849E+017
1.235295E+017
1.191985E+017
1.161139E+017
1.156505E+017
1.073272E+017
1.076174E+017
1.040868E+017
9.677503E+016
8.987111E+016
8.132536E+016
7.692918E+016
7.567297E+016
6.407754E+016
6.464391E+016
6.050861E+016
5.149787E+016
4.610874E+016
3.849495E+016
3.405564E+016
3.144659E+016
2.229828E+016
1.592852E+016
1.084776E+016
1.095338E+016
1.615726E+016
2.444511E+016
2.991532E+016
3.535323E+016
4.273542E+016
4.669974E+016
5.818955E+016
5.941992E+016
6.637255E+016
7.629444E+016
8.256253E+016
8.067078E+016
8.516879E+016
8.860564E+016
1.025735E+017
1.052975E+017
1.041472E+017
1.11415E+017
1.117874E+017
1.236988E+017
1.332309E+017
1.361568E+017
1.311263E+017
1.390202E+017
1.456895E+017
1.42595E+017
1.450155E+017
1.529659E+017
1.539291E+017
1.604101E+017
1.606164E+017
1.58752E+017
1.595618E+017
1.663264E+017
1.729878E+017
1.683628E+017
1.674586E+017
1.67677E+017
1.654684E+017
1.690297E+017
1.635355E+017
1.682061E+017
1.703971E+017
1.673985E+017
1.66798E+017
1.647744E+017
1.599974E+017
1.594535E+017
1.538417E+017
1.573161E+017
1.454653E+017
1.485525E+017
1.451224E+017
1.500674E+017
1.464065E+017
1.411913E+017
1.283896E+017
1.228442E+017
1.210629E+017
1.223001E+017
1.152988E+017
1.111588E+017
1.044836E+017
9.480925E+016
9.180683E+016
8.595149E+016
8.531407E+016
7.887725E+016
6.902772E+016
6.726294E+016
5.918662E+016
5.643622E+016
5.254902E+016
3.901313E+016
3.518829E+016
2.977298E+016
2.308089E+016
1.81965E+016
1.269159E+016
1.085799E+016
1.737111E+016
2.781109E+016
3.380432E+016
4.049675E+016
4.644434E+016
5.185005E+016
6.4457E+016
6.865125E+016
7.050293E+016
8.113042E+016
8.268178E+016
8.868332E+016
8.813197E+016
9.601322E+016
1.035106E+017
1.061123E+017
1.116501E+017
1.192762E+017
1.155637E+017
1.269475E+017
1.327083E+017
1.292812E+017
1.389911E+017
1.475173E+017
1.506471E+017
1.475894E+017
1.596364E+017
1.537763E+017
1.660471E+017
1.604294E+017
1.60161E+017
1.619822E+017
1.614913E+017
1.6407E+017
1.664061E+017
1.706106E+017
1.742898E+017
1.737904E+017
1.689236E+017
1.735976E+017
1.795202E+017
1.678528E+017
1.743147E+017
1.769848E+017
1.708011E+017
1.673679E+017
1.718322E+017
1.649229E+017
1.587482E+017
1.632111E+017
1.546054E+017
1.603026E+017
1.587611E+017
1.500079E+017
1.460972E+017
1.402552E+017
1.328661E+017
1.291856E+017
1.234933E+017
1.272461E+017
1.190761E+017
1.135463E+017
1.081114E+017
1.039479E+017
1.021438E+017
9.567021E+016
8.762991E+016
8.30463E+016
6.932836E+016
6.784903E+016
6.448393E+016
5.852412E+016
5.100667E+016
4.305948E+016
3.967359E+016
3.233096E+016
2.652612E+016
2.014275E+016
1.117537E+016
1.073249E+016
1.828721E+016
2.581761E+016
3.390405E+016
4.380859E+016
4.39793E+016
5.551888E+016
6.172092E+016
6.990432E+016
7.469801E+016
8.387169E+016
8.46585E+016
9.742195E+016
9.433773E+016
1.0353E+017
1.044894E+017
1.047364E+017
1.123056E+017
1.184237E+017
1.263797E+017
1.292832E+017
1.424908E+017
1.432984E+017
1.467063E+017
1.464152E+017
1.513576E+017
1.573516E+017
1.650951E+017
1.747352E+017
1.702537E+017
1.636442E+017
1.661305E+017
1.711514E+017
1.73085E+017
1.696196E+017
1.738571E+017
1.753873E+017
1.783308E+017
1.860418E+017
1.825571E+017
1.848817E+017
1.902599E+017
1.767045E+017
1.758836E+017
1.779885E+017
1.733926E+017
1.782003E+017
1.696669E+017
1.697932E+017
1.679316E+017
1.695018E+017
1.634999E+017
1.623125E+017
1.607658E+017
1.477922E+017
1.490473E+017
1.496791E+017
1.364332E+017
1.363033E+017
1.285782E+017
1.307905E+017
1.279864E+017
1.207976E+017
1.165841E+017
1.124517E+017
9.749977E+016
9.898241E+016
9.331713E+016
8.116358E+016
7.451766E+016
7.298696E+016
6.380119E+016
6.041969E+016
5.249926E+016
4.201928E+016
3.599649E+016
3.023844E+016
2.555248E+016
1.781875E+016
1.23976E+016
1.311747E+016
2.073216E+016
2.748059E+016
3.697575E+016
4.301965E+016
4.988717E+016
6.244183E+016
6.258633E+016
7.40717E+016
7.749888E+016
8.138366E+016
8.879944E+016
9.045943E+016
9.868557E+016
1.000805E+017
1.145971E+017
1.181641E+017
1.184457E+017
1.228697E+017
1.337015E+017
1.345681E+017
1.428865E+017
1.481397E+017
1.478688E+017
1.530114E+017
1.596769E+017
1.617632E+017
1.640948E+017
1.748736E+017
1.782101E+017
1.722843E+017
1.713979E+017
1.786408E+017
1.798392E+017
1.800007E+017
1.846764E+017
1.855701E+017
1.857859E+017
1.892453E+017
1.858336E+017
1.895836E+017
1.872944E+017
1.930486E+017
1.896331E+017
1.809661E+017
1.809893E+017
1.827811E+017
1.793502E+017
1.796556E+017
1.789154E+017
1.794681E+017
1.664002E+017
1.634033E+017
1.644078E+017
1.627103E+017
1.597574E+017
1.471966E+017
1.397421E+017
1.410105E+017
1.39378E+017
1.323804E+017
1.3119E+017
1.229472E+017
1.209537E+017
1.145247E+017
1.08806E+017
9.814586E+016
9.726622E+016
8.955172E+016
8.171265E+016
7.355928E+016
6.942334E+016
5.761891E+016
5.296731E+016
4.669826E+016
3.650983E+016
3.229633E+016
2.993977E+016
2.144586E+016
1.093992E+016
1.070053E+016
1.760394E+016
2.946177E+016
3.565612E+016
4.412691E+016
5.795368E+016
5.696366E+016
6.723022E+016
7.111989E+016
7.73357E+016
8.536602E+016
9.545519E+016
9.634116E+016
1.018104E+017
1.119009E+017
1.19948E+017
1.229008E+017
1.279037E+017
1.2595E+017
1.391697E+017
1.399339E+017
1.376837E+017
1.548534E+017
1.649064E+017
1.515522E+017
1.691597E+017
1.713957E+017
1.715588E+017
1.701423E+017
1.814445E+017
1.790821E+017
1.884184E+017
1.908025E+017
1.860176E+017
1.863043E+017
1.82344E+017
1.928562E+017
1.871199E+017
1.889955E+017
1.862819E+017
1.899169E+017
1.888775E+017
1.932135E+017
1.934518E+017
1.809641E+017
1.893503E+017
1.863716E+017
1.796992E+017
1.841752E+017
1.805184E+017
1.813341E+017
1.664342E+017
1.767005E+017
1.589646E+017
1.62583E+017
1.553798E+017
1.566153E+017
1.544543E+017
1.423509E+017
1.437829E+017
1.47659E+017
1.309944E+017
1.255448E+017
1.227325E+017
1.13168E+017
1.148111E+017
1.067703E+017
9.406686E+016
8.65735E+016
8.328627E+016
7.373327E+016
7.005882E+016
5.610131E+016
5.641897E+016
5.201662E+016
4.378099E+016
3.981616E+016
2.893227E+016
2.111447E+016
1.146292E+016
1.129875E+016
2.096284E+016
2.665363E+016
3.890435E+016
4.162528E+016
5.251575E+016
5.958913E+016
6.498535E+016
7.969139E+016
8.03572E+016
9.116792E+016
9.802352E+016
1.024986E+017
1.088487E+017
1.161585E+017
1.257325E+017
1.230146E+017
1.257797E+017
1.358777E+017
1.447579E+017
1.464192E+017
1.506696E+017
1.557904E+017
1.612621E+017
1.652418E+017
1.691469E+017
1.661133E+017
1.725595E+017
1.789629E+017
1.8247E+017
1.887916E+017
1.94681E+017
1.910726E+017
1.927224E+017
1.898969E+017
1.870198E+017
1.927917E+017
1.900641E+017
1.976425E+017
1.935388E+017
1.964107E+017
1.985716E+017
1.964444E+017
2.022683E+017
1.954555E+017
1.978593E+017
1.977157E+017
1.933342E+017
1.878267E+017
1.864671E+017
1.873783E+017
1.774693E+017
1.784261E+017
1.68981E+017
1.682328E+017
1.589476E+017
1.589831E+017
1.512073E+017
1.500098E+017
1.477318E+017
1.446725E+017
1.382114E+017
1.289769E+017
1.240419E+017
1.117727E+017
1.121967E+017
1.088647E+017
1.017341E+017
9.210714E+016
8.313957E+016
7.925441E+016
7.279325E+016
6.294271E+016
5.512335E+016
4.885517E+016
4.087638E+016
3.745288E+016
3.074864E+016
2.141287E+016
1.081737E+016
1.123654E+016
2.027161E+016
2.889383E+016
3.805019E+016
4.590967E+016
4.829745E+016
6.099138E+016
6.812332E+016
7.888908E+016
8.39995E+016
9.435267E+016
9.886605E+016
1.050436E+017
1.149756E+017
1.182991E+017
1.262595E+017
1.3362E+017
1.321633E+017
1.365936E+017
1.495436E+017
1.484334E+017
1.566196E+017
1.549535E+017
1.577028E+017
1.678839E+017
1.76197E+017
1.727793E+017
1.865172E+017
1.962128E+017
1.891465E+017
1.945795E+017
1.894377E+017
1.886178E+017
1.946701E+017
1.953529E+017
1.921961E+017
2.04173E+017
2.026404E+017
1.984044E+017
1.990335E+017
1.966426E+017
2.012264E+017
2.030199E+017
1.970689E+017
2.057816E+017
2.011996E+017
1.986897E+017
2.045924E+017
2.048523E+017
1.982514E+017
1.810459E+017
1.817747E+017
1.909369E+017
1.845801E+017
1.820598E+017
1.60188E+017
1.655567E+017
1.610928E+017
1.538054E+017
1.498215E+017
1.480411E+017
1.41848E+017
1.355041E+017
1.262237E+017
1.224178E+017
1.157973E+017
1.124604E+017
1.007664E+017
9.067591E+016
8.593374E+016
8.262431E+016
6.840521E+016
6.45077E+016
6.245893E+016
5.143074E+016
4.372473E+016
3.822408E+016
3.135856E+016
1.928965E+016
1.23925E+016
1.213768E+016
2.23138E+016
3.386166E+016
3.959712E+016
4.409817E+016
5.301299E+016
6.282157E+016
7.459553E+016
7.775679E+016
8.94891E+016
9.552736E+016
1.015154E+017
1.092521E+017
1.151389E+017
1.174787E+017
1.207391E+017
1.259454E+017
1.343508E+017
1.390058E+017
1.507573E+017
1.542287E+017
1.726743E+017
1.656192E+017
1.661569E+017
1.713722E+017
1.807267E+017
1.857598E+017
1.874176E+017
1.920625E+017
1.981278E+017
1.956107E+017
1.900122E+017
1.913064E+017
1.972369E+017
1.986966E+017
2.03209E+017
2.074437E+017
2.08661E+017
2.035237E+017
2.028361E+017
2.071886E+017
2.054184E+017
2.099721E+017
2.079424E+017
1.990636E+017
2.157337E+017
2.047732E+017
2.07034E+017
2.012559E+017
1.997931E+017
1.896513E+017
1.959441E+017
1.905342E+017
1.847396E+017
1.751721E+017
1.849625E+017
1.734093E+017
1.629974E+017
1.615116E+017
1.538669E+017
1.489941E+017
1.446181E+017
1.41E+017
1.318016E+017
1.229434E+017
1.20978E+017
1.171643E+017
1.022968E+017
1.008831E+017
8.470953E+016
8.415322E+016
7.447155E+016
6.877066E+016
6.571791E+016
5.529802E+016
4.43115E+016
3.953919E+016
2.772681E+016
2.032396E+016
1.230448E+016
1.388862E+016
2.336652E+016
3.194334E+016
4.264065E+016
4.824274E+016
5.955506E+016
6.359389E+016
7.753103E+016
8.127814E+016
9.016211E+016
9.502846E+016
1.01512E+017
1.064234E+017
1.146834E+017
1.23815E+017
1.283468E+017
1.316096E+017
1.399788E+017
1.411341E+017
1.554228E+017
1.627731E+017
1.675834E+017
1.774043E+017
1.707758E+017
1.796846E+017
1.869303E+017
1.952221E+017
1.891903E+017
1.995637E+017
2.0498E+017
1.965354E+017
2.007462E+017
1.945525E+017
2.039106E+017
2.098195E+017
2.130328E+017
2.106998E+017
2.063458E+017
2.124492E+017
2.152404E+017
2.156758E+017
2.124895E+017
2.228341E+017
2.170573E+017
2.149569E+017
2.153852E+017
2.15142E+017
2.110225E+017
1.977906E+017
2.068177E+017
1.974778E+017
1.926657E+017
1.919584E+017
1.866614E+017
1.843588E+017
1.815528E+017
1.82815E+017
1.712122E+017
1.637426E+017
1.536378E+017
1.553363E+017
1.503007E+017
1.469604E+017
1.337615E+017
1.275435E+017
1.23781E+017
1.149411E+017
1.072806E+017
1.0342E+017
9.46557E+016
8.740339E+016
8.443903E+016
7.401841E+016
5.742653E+016
5.919872E+016
4.898659E+016
3.913015E+016
3.085851E+016
2.265287E+016