/*--------------------------------*- C++ -*----------------------------------*\
| =========                 |                                                 |
| \\      /  F ield         | OpenFOAM: The Open Source CFD Toolbox           |
|  \\    /   O peration     | Version:  v1806                                 |
|   \\  /    A nd           | Web:      www.OpenFOAM.com                      |
|    \\/     M anipulation  |                                                 |
\*---------------------------------------------------------------------------*/
FoamFile
{
    version     2.0;
    format      ascii;
    class       volScalarField;
    object      dnp7_s;
}
// * * * * * * * * * * * * * * * * * * * * * * * * * * * * * * * * * * * * * //

dimensions      [0 -3 -1 0 0 0 0];

internalField   nonuniform List<scalar> 
6400
(
92358669936172
149957339482747
202872694424204
256792042673916
326043730942680
379861258034589
419172022062614
481618662951478
528869184018894
587943801699763
620476120271999
700451594534524
723994297372715
762571673872233
829503032243112
865227581708663
939969815383153
944033488618033
1.01592289525856E+015
1.02993018426456E+015
1.10592454298773E+015
1.12366068790791E+015
1.12434408216524E+015
1.15723873729002E+015
1214194374119294
1.21160756632644E+015
1.26197234713029E+015
1.27139309749648E+015
1311924339456558
1340264561712000
1.43674240200059E+015
1.37141633215365E+015
1.40231584297011E+015
1.42370287264759E+015
1.45326770071986E+015
1.40792517972661E+015
1.47782402859745E+015
1.4391274020933E+015
1447956488974951
1.42008409366077E+015
1.50021092369841E+015
1.43486650769691E+015
1.48365351920866E+015
1.41989604557654E+015
1.41389685303565E+015
1403852333414451
1.42690886315682E+015
1.41451144921339E+015
1.35320777375357E+015
1.39459211190066E+015
1330453955561427
1379750072862202
1294312031079653
1.27387441490062E+015
1235966673042515
1.21438242220353E+015
1.17496570913292E+015
1160412622028776
1099663917744373
1.06779664727491E+015
1022917366684281
988926528824582
947395421441021
903809544746820
873735610885527
807886675633645
795379184762858
706771844780195
705088585099381
635726361249398
588549224800219
535813203519580
468569960521193
429282587840231
368805406643305
345253989381698
266556783438091
210242344710665
162845054406775
92953543997756.5
140169666025374
219556228726545
323568376038770
423642062620981
497717413577243
591360772986428
651004121458635
744198000081118
857508437177847
887256726795714
968209133788520
1052087752433530
1.16409561255655E+015
1.17999255548216E+015
1277360184266882
1.38393758264036E+015
1433559344184559
1510273789474172
1.53920108867551E+015
1.61590636088784E+015
1.65182354497627E+015
1.74962689493177E+015
1.75100285652371E+015
1.79623988712825E+015
1.88912646766186E+015
1.91018326655727E+015
1.9662353552745E+015
1975472644095098
2.09240186017864E+015
2065171580274039
2.11982477470612E+015
2.09042506202488E+015
2228392730849279
2.14454163143611E+015
2.19150778710785E+015
2.19629613344783E+015
2.23190601944738E+015
2.22832393276968E+015
2277308165442949
2255971587690511
2.28723343505952E+015
2295613041154467
2.2735472037583E+015
2.22785151928978E+015
2.18611401766743E+015
2.17227184405245E+015
2211995855211926
2.13402011179636E+015
2.1447709583681E+015
2.12029260164738E+015
2.09869000465384E+015
2.07317509020052E+015
2044463358315256
1973417874784459
1.91104094928292E+015
1.85659873562827E+015
1.81065996461184E+015
1755745337477287
1.73631217326037E+015
1.64627383322209E+015
1578608628668836
1.51804797246867E+015
1.45057081599965E+015
1.36344951453629E+015
1.34879093704342E+015
1287138684646976
1.19658665228103E+015
1118010072303649
1.0366494633719E+015
1.00541972177337E+015
907896150674899
814876560520729
715522960504969
647536698246931
583201320746190
487255518939815
407075485053955
313739423733637
261850077485909
136001878363370
190813308378527
309355151447834
417025521979178
565341339282735
638524149819687
755118548582527
861471206562651
979858941933660
1.10959836043822E+015
1.16770521846609E+015
1262586943308025
1.36793514932603E+015
1.51067740487448E+015
1.56312906075945E+015
1.72918010567546E+015
1.82821264798643E+015
1.88550768867505E+015
1965740009101402
2.06130971473931E+015
2.16777703618543E+015
2.18894849854684E+015
2333268523387381
2313977541868302
2389238054409093
2.49872331828021E+015
2546166473970501
2.62143157304993E+015
2752349731984926
2.74405727012413E+015
2.73749393333055E+015
2.78944106996514E+015
2876585304121704
2887111410300089
2907365564933530
2935201267938592
2.97522340410965E+015
2.99818820307923E+015
3.0134934825203E+015
2.92494118100132E+015
2964316615224163
2946369489526551
2.99362918367125E+015
2991459750894612
2.99661960686441E+015
2927115200316591
2.882286371651E+015
2890987035450736
2845603235609727
2.79952228189547E+015
2804209724385360
2791761858516891
2726825644454333
2699329345308618
2.61847784216589E+015
2.53769055056412E+015
2.48158342338321E+015
2367699668956503
2.37132303448196E+015
2.31197781102134E+015
2210445605151667
2074830830649498
2.05177888744577E+015
1.96080489352496E+015
1.81301744547271E+015
1.76105196268356E+015
1706325383633237
1.58432345581405E+015
1.48948300981987E+015
1.36597211078819E+015
1325771099610172
1.22559650917788E+015
1126045688000612
957756412228372
918981814567342
768378231790244
651641650329570
565607358523844
424108054946787
325070008789446
192499319982525
231557824385360
374596370329940
546756684714188
697011690554660
831126666921608
958137094935477
1.09346291750334E+015
1.21548777801572E+015
1402591035288501
1507875029765547
1.59915632177523E+015
1.74615947172007E+015
1.82763015757917E+015
2.02338362672665E+015
2.11808189002299E+015
2.24239084677801E+015
2351215649084993
2443097777656488
2.60320925503393E+015
2.65765605522722E+015
2819230638430767
2888193833419086
2916634959524604
3.04029721433141E+015
3.1128287363815E+015
3235339769989710
3183745796830385
3.29457032998433E+015
3387177131660919
3395928247385694
3.53568925281826E+015
3552755763097026
3544009233910891
3.64499564168243E+015
3638698324129955
3.67889474876933E+015
3.7215908369674E+015
3733488318199095
3.68684780677078E+015
3684696720148700
3716463086768087
3748013886071402
3.72126060618534E+015
3.63070857381939E+015
3640404516503968
3572280658086736
3536028656677606
3564483542399043
3.52108571378908E+015
3475206567774966
3.43755567208069E+015
3.39393310307737E+015
3331111283327771
3.24041706826399E+015
3.16949542127647E+015
3.0935469279397E+015
3025702848379501
2.92146458471233E+015
2.82461523479392E+015
2762618991999481
2.62495862126395E+015
2.52820100211833E+015
2400997939481589
2299140089368488
2233460856046279
2.09002603316322E+015
1.97863276921793E+015
1.90307413166555E+015
1740004336865428
1.63132171725628E+015
1.51847910710081E+015
1.38646017889226E+015
1234196269127545
1.10676387955881E+015
977790413007102
810551454583380
692420565376201
538941222871936
378837542610181
235825598589711
272249595197834
497882528968276
629121745608058
814908666291208
970584960803946
1.16138496822042E+015
1313217743352987
1.47597106698697E+015
1.63245917883895E+015
1.80138598348213E+015
1.9663041533541E+015
2.06114001280964E+015
2.19282871023612E+015
2.40726315126358E+015
2.58595928320957E+015
2708580393745133
2841035043124467
2.97063686546983E+015
3040677897038510
3.18603906615029E+015
3273064050302221
3403184151513887
3.51161909803649E+015
3619710054161104
3752100491999481
3.8460236302657E+015
3.90162623819622E+015
3971992914008326
4027664320018449
4139919853228020
4.14489624765222E+015
4.1661686138637E+015
4.26754487741963E+015
4.22301876030426E+015
4.31549713889893E+015
4.33380201461045E+015
4.37138869876377E+015
4490037866837246
4.470035971829E+015
4511071733039456
4.45715697132838E+015
4483786414671173
4474007914291079
4393174757302908
4263343608025550
4321372494896541
4.31778123514156E+015
4222367471817407
4.27076462754478E+015
4.15247779602384E+015
4.13300793949781E+015
3968841961962770
3956251913396467
4.00187879978539E+015
3861934332807228
3.7475185398983E+015
3.65842502681982E+015
3514205905829347
3388392564400471
3314792378847295
3189795441296307
2982387577465050
2870077005791801
2744974577852097
2.63954840067722E+015
2516014568952331
2.39659027584872E+015
2311734724473431
2.07894036927078E+015
1.96248815320577E+015
1.78454880013535E+015
1.61359933195202E+015
1501408010283402
1.28629017499861E+015
1.10984603352477E+015
970149239633163
812661262357696
652756179219046
444740140364149
271460710551786
328328285839174
558681685177717
762539568101754
975896172548856
1.1211610243492E+015
1.32590869576937E+015
1.51635553971057E+015
1.73001026916926E+015
1.90316127589971E+015
2083797513690344
2.25243077986057E+015
2403488429963011
2.58595469667093E+015
2816322772933122
2995670193365966
3070517917429173
3291593666407090
3.39351572806115E+015
3.49989131873447E+015
3730401577694497
3.88287646823664E+015
3.9777260873081E+015
4.05621552305132E+015
4210268182885564
4.31347447535877E+015
4.45302450001391E+015
4515213377431213
4611260083087663
4699184028812993
4795455474862796
4765551242931175
4858612111933104
4971074039381465
5016755964234065
5064914619952164
5101515198297920
5146738469286535
5226498376232989
5299837129083696
5149719719402418
5195493375027812
5200400971372418
5123255391450663
5133070584139875
5093351159519042
5097203851976490
5018865772008381
4962543077511403
4930483172419069
4850035284676642
4794079513270850
4694826817105165
4569426264153874
4540196253402307
4.44283779769487E+015
4.34918067866976E+015
4.25314314609059E+015
4.08353753372872E+015
3946161528388865
3873235564015742
3748169828385156
3.53806507983369E+015
3.41902605597582E+015
3200454557095246
3079186475458431
2952474172456150
2.82701399450254E+015
2611281563040012
2428764844407053
2.28272028103794E+015
2087498850372678
1.88813118877702E+015
1.70487145088441E+015
1.50015588523473E+015
1.30053137747525E+015
1.14667135226388E+015
953458825522861
761278269975804
517801866281010
324944796284579
365190755541263
610211446796084
866117370204788
1.10025558122891E+015
1.27166828981487E+015
1.494243836928E+015
1.71236585502188E+015
1948480864199763
2.14266573713242E+015
2.38957745826844E+015
2558252003286424
2.75264327045787E+015
2.96778403843587E+015
3.16368886335846E+015
3.31725993663552E+015
3.54301395502605E+015
3.65249004581989E+015
3882743458616087
4104117332605593
4.25800946358744E+015
4.36292194843466E+015
4545250618983388
4611993929270034
4705696913681538
4864482881392072
5056337792695702
5250807031024029
5307725975544184
5247091934725776
5434452038162385
5519303002999036
5580854351545407
5627545314898766
5660981181583047
5761334647022286
5797981090754441
5935944173040199
5921909364802351
5840544169331963
5887739651935699
5901912056332741
5927780134261320
5891959267484334
5895949556100975
5794220129069790
5762527147068640
5766379839526087
5720881376219083
5611033775795417
5534759638215226
5401245498410094
5326622514740238
5381615113031669
5116329718104535
4990291636282309
5024874137626544
4889112593887901
4665427104423926
4.45088258646911E+015
4.43010097989209E+015
4.2900143302161E+015
4100796678630364
3.85961354425548E+015
3673193681240034
3518209954061909
3322571148380428
3.27900820437943E+015
3042608829805874
2775488819422813
2.6363561697839E+015
2361613332181463
2162071382117496
1.94812311418586E+015
1730326740335410
1.4680959801424E+015
1.29372036759512E+015
1044460338675511
881679495809693
633070755376942
391266145016363
411378116951969
705923335131828
986913038361702
1.23265977868321E+015
1.44545223887761E+015
1.71692487442986E+015
1.96155249932325E+015
2149261179696481
2446739489336504
2679281584913969
2.87043934234435E+015
3.10106885130901E+015
3380370708319427
3.50972944411688E+015
3.72907148148895E+015
3989545597382913
4191954134096767
4390881487982999
4533454041601773
4752342011648496
4867831054599141
5025103464558535
5226773568551379
5341849823024437
5485591943996367
5611308968113806
5838250900012052
5800503687006341
6066293601183854
6188249663616642
6152107739134868
6217511780138689
6277228513229132
6350337939147847
6468945828373568
6442940154285794
6557924677986058
6616448911030148
6648600546895281
6643371892845885
6658966124221271
6600946410427560
6565859389832944
6691714010109579
6516462368682095
6381939190376200
6457617077933215
6359602747200282
6312957649233322
6128349468980606
6103994948803169
6070696678278080
5841094553968740
5735191376775317
5609474352657878
5530356561121000
5403492902343605
5336621168975044
5133345776458265
4879297401198688
4722896433580858
4510516761864039
4.31727671589118E+015
4072497735222680
3971373731291951
3766254550241962
3576697494796881
3.40391341115762E+015
3200913210959228
2.92388169057552E+015
2673204421216209
2.41684443048216E+015
2.2142386726068E+015
1.9186179111159E+015
1700927027654170
1.43500869039474E+015
1.1805612862735E+015
989779625011588
719485729889773
422626144312261
445923467333222
763768760457226
1.10948828351087E+015
1370375187882412
1.65945095873429E+015
1.8572821298856E+015
2171826949804391
2449156595199689
2671112959596451
2944319306754552
3.2426644721975E+015
3383819785376571
3.7089319903215E+015
4.00862101158592E+015
4255358444253625
4.30423718653818E+015
4584736130133590
4945618749930471
5062713081405051
5239936934447658
5450688384947343
5589706371120259
5690243298105091
5972957539863539
6055698696925874
6214668126182000
6427988038319984
6478944482608374
6587278525280899
6721343049722810
6871322863244893
6926407192309119
7109777007129083
7124087007685319
7124316334617312
7199168645219156
7283469225419031
7364972017048618
7417396153701747
7384877594745429
7350616151105981
7356853843656138
7252831147305040
7228017973263619
7210864318750695
7079964505970260
7048638447060296
6949477481667409
6964108539928432
6876780844226277
6728406319228131
6591360544670338
6452159096951830
6387672363675974
6238609857881855
6123441872636001
6023271868742352
5858844458504840
5595944063670412
5461237423818927
5169304239394445
5091470678676716
4880168843540254
4627909218350206
4.30275114801888E+015
4.11453794839526E+015
3.9761941834024E+015
3699694701500910
3.4951259050877E+015
3.20465582648932E+015
3.00433875139522E+015
2.76138979964401E+015
2.44427193154828E+015
2139051544684244
1881971467383747
1.61886926484917E+015
1.32790842661633E+015
1.081675513199E+015
754627788948066
474032528041217
501469202184615
809290156457429
1.17928164199299E+015
1.49057919255479E+015
1.80984356073395E+015
2.06933615735899E+015
2379019246319576
2636021352463196
2.94965345119266E+015
3.25154401100419E+015
3577724879452201
3801832330471040
3.9945082321912E+015
4360225063714448
4616488737137056
4861134708185005
5105459621528164
5339831746022917
5564618004760448
5777570993807246
6034233696091521
6135412738485927
6334789573158861
6568565447630437
6747348723810584
6964429597633218
7069048544007490
7212744799593021
7354881632041014
7450281635749250
7584483756350354
7675067894486780
7781750783248972
7802986457151335
7941133000982683
7894579633788520
8012591272991065
8003693388029815
7986952521994476
8056346851614938
8134318008491862
8052585889930287
8042220312604295
7955901655402901
7937876558548412
7825506361872846
7767624244238330
7675022029100382
7631312315862906
7525363273283089
7439457404559276
7312456149622687
7185225567754109
7059462678250269
6834034304103163
6818715265046168
6568840639948827
6289749763715837
6184809759636779
5957821962352134
5706892433367635
5425462422428339
5184852605383432
4978504231977974
4791006532382172
4615296237090704
4.34071392834066E+015
4.10149383250362E+015
3725406837115734
3538028387524567
3.27042679058433E+015
2.96971038466459E+015
2583858648512534
2.33240166758446E+015
2.03407943483471E+015
1.77466480936654E+015
1457941383593837
1.15003787162551E+015
852990696617625
493754644192439
567240166279620
889325255722272
1.27858479008371E+015
1.60463264891117E+015
1.88942917921209E+015
2252747251026718
2587206821719602
2866100476791078
3243512981845867
3.54729778211564E+015
3.96682388496125E+015
4141520555213317
4.31809311976907E+015
4673178354725221
4988411155439983
5228699914780102
5516505214428746
5760600800839917
6032490811408389
6352172554603775
6549714773820781
6785279398361887
6909803922432974
6962549116790893
7260674128379130
7500137310764082
7723318280977677
7782759821749732
8032221658369489
8074096756151038
8174220894658287
8234946666249492
8342913785830832
8488536387645086
8620124181221495
8647643413060408
8662962452117404
8801521784426337
8727770243098046
8928568904749324
8857615151991325
8768269379287649
8822207073691923
8692774953276227
8634158989459341
8445881578294768
8492297349329738
8422444365845294
8294892726271927
8223572050422741
8134501470037454
7934344923795751
7772669436742131
7609434526550970
7498165099148960
7363045670819892
6984885559966811
6914528057231987
6689191413857678
6477522655630029
6278833801753068
5908791864292468
5735879357571292
5451330500356918
5218334337454111
5064226639156191
4715970760234731
4.37841986249861E+015
4.15735787313661E+015
3810216523104628
3.54880675332814E+015
3211916317156154
2.8660454383274E+015
2.56625551321291E+015
2256861376186636
1.93660631566127E+015
1551772791087255
1266054366519728
908845564173341
532685184167223
649499736784774
983184182447529
1.35107961982469E+015
1.74105924075259E+015
2091076350511737
2418302949769626
2794472502853024
3104265668740961
3413100248053176
3793085801284904
4.15845405587153E+015
4.47737443365271E+015
4664876719787148
5017948464280417
5346115303959469
5705011952525309
6043223311825566
6276036013182779
6542376311997071
6793856225618349
7004745272277228
7343873939305447
7385794902473395
7664931644092780
7929941846701525
8102258103399526
8322778881202026
8442900328178888
8497388407219936
8755793994187341
8915267942693849
9.04103083219769E+015
9.2205938199466E+015
9.23311507043331E+015
9.24439795548726E+015
9.31562690056365E+015
9.52293844708347E+015
9.51041719659677E+015
9.38002190306671E+015
9.47707306068528E+015
9.48491604175938E+015
9.56875796809526E+015
9.46083671390032E+015
9.37057363346869E+015
9.23554593591241E+015
9.24059112841622E+015
9.14908968255183E+015
9001219676804058
8978516310536954
8844818709186229
8764646013762192
8597283218795195
8397722922576669
8325347342840326
8151700989936776
7891735979831833
7737077896897135
7445052981699856
7190454221803501
7042538350669339
6841556227472466
6511417176178292
6256038704713168
5960665616308824
5681391278530241
5371754054956058
5110046160167983
4740095953480180
4412433633051508
4.13121918942828E+015
3795012147513628
3.52209475228984E+015
3.10655893806087E+015
2764421501684930
2.41647292085234E+015
2.06470375333278E+015
1.74212790425566E+015
1.36256889911744E+015
972593864728186
584999243892999
673143343473041
1.06910381078726E+015
1.47789741321569E+015
1.84409583129612E+015
2236281577309768
2624995313573071
2.98687779879343E+015
3449856768712686
3685192066321801
4.07882715854563E+015
4459890548357716
4808389513827085
5144674526898618
5470227039552973
5726247626427673
6134128507666777
6383544478900137
6653508143239885
6942781135253272
7218111049801609
7504815580176698
7933565212226983
8049925697519191
8291315226132868
8637507162666409
8773956687201025
8970168810212484
9.09950919985538E+015
9.27315555275893E+015
9.44748988645845E+015
9.60026748855082E+015
9.63549210530463E+015
9.75465037916713E+015
1.00511701022314E+016
9.9708139452618E+015
1.01305630860867E+016
1.01345075093169E+016
1.01106575083899E+016
1.01764284724849E+016
1.01564311640153E+016
1.02706359761468E+016
1.01374887594328E+016
1.02195419356992E+016
1.01378098171376E+016
1.01440016443014E+016
1.00139274084761E+016
9.90274971184689E+015
9.84528038268996E+015
9.71901297393574E+015
9.60774354653373E+015
9.48289796475785E+015
9.28994228418067E+015
9.16206958690251E+015
8899673711318464
8735246301080952
8544308697505286
8320714938814108
8049742235973598
7781016937066602
7529215965740535
7286129417830125
7143671527677347
6722994203633144
6497841021804428
6125459949637521
5813667052902622
5464677327798791
5038037503522825
4823433360565692
4.4246888642971E+015
4062430282908278
3.73968473190149E+015
3347581543583361
2909461613091927
2606791341711629
2.17428992105397E+015
1846801889093615
1.45851928746245E+015
1.06648031068528E+015
609890389091297
712257344993418
1.17775432462593E+015
1.58472707121435E+015
1.96895517268792E+015
2.42747144051062E+015
2.83548074483165E+015
3183447671818797
3.59091117804168E+015
3.88675667992593E+015
4391019084142193
4798482590365077
5141739142169134
5557508869868728
5904985037221419
6147704662040643
6468441309123187
6964658924565209
7154266431935329
7592693660515631
7801931553264175
8207198107478587
8322503688883637
8602099084367006
8836241881929767
9.17266449116049E+015
9.52188354319632E+015
9.59022296892962E+015
9.82624624733471E+015
9.83968480554938E+015
1.01272149128796E+016
1.01824368381031E+016
1.03839693459367E+016
1.05747693533532E+016
1.06981931081507E+016
1.06218731051841E+016
1.08342757095941E+016
1.08989000390292E+016
1.08979368659148E+016
1.09912270618487E+016
1.0949673021772E+016
1.10326435057663E+016
1.0985035234685E+016
1.09215575399099E+016
1.08331749403206E+016
1.06988810889467E+016
1.05858687768615E+016
1.05545427179516E+016
1.04664353106806E+016
1.04182766549625E+016
1.0258802706456E+016
1.01146477970065E+016
1.00210824087542E+016
9.70676691576742E+015
9.55889691001965E+015
9.35763959450439E+015
9.13147737417492E+015
8874218421867469
8714285819496980
8343372439694815
8060153678685988
7846054054979235
7564578178653541
7224440473124562
6917463441961471
6510866791541516
6145778315811919
5827839457299662
5514120214336040
5180357797516409
4791556917018949
4299343349809490
3.99947545353812E+015
3.60671180365586E+015
3.15410758413987E+015
2.71262572082545E+015
2387541035112360
1.9126737570387E+015
1.53359175191901E+015
1.1095387354359E+015
665992929733563
701428527264805
1.22196855711379E+015
1660781054939834
2153471622167835
2.57791449443533E+015
3.02303348289113E+015
3.46319900961592E+015
3.84535858216292E+015
4192518278349465
4674141527839581
4984512597596136
5467291654823488
5925853788032596
6282090244187340
6595304967900582
6945074404573182
7346029612466162
7620625680832129
7926593673494458
8305671092075501
8690298222410725
8869677748614048
9.13766920133867E+015
9.40735767336003E+015
9.79840595779101E+015
9.91228971221771E+015
1.01996822233888E+016
1.05094570431222E+016
1.0605040508376E+016
1.07781364766428E+016
1.10531453334863E+016
1.10965798544054E+016
1.12793075538158E+016
1.13977778468823E+016
1.15249166979781E+016
1.14723090997794E+016
1.1632837952173E+016
1.15800010270423E+016
1.17714431498684E+016
1.17028743972031E+016
1.16741626653178E+016
1.16558165107585E+016
1.17064518973421E+016
1.14762535230096E+016
1.14893251581331E+016
1.13431521716821E+016
1.12363316867607E+016
1.11299239903169E+016
1.1071996007296E+016
1.09552227335262E+016
1.08190942666963E+016
1.05987569504394E+016
1.03987838657433E+016
1.02288067437516E+016
1.00247975050525E+016
9.6845222033643E+015
9.34855824799755E+015
9.16000564451459E+015
8863531786836692
8599530622728706
8320118688790931
7973880886870992
7638650777686617
7268746436385211
6904391806837987
6544853042862573
6222511107256091
5874346959107428
5526045214799570
4996162405741277
4699642682676975
4.26720088702164E+015
3.77910603151074E+015
3.40739918052388E+015
2.97892474079199E+015
2576322965527311
2.07542708067267E+015
1.6626431896276E+015
1.20242072943088E+015
716142143221345
747697529063300
1.29727034850234E+015
1.75892380875468E+015
2228567019317592
2673048478902455
3.19968401860376E+015
3675165892855156
4126173996924483
4460220779139781
4882507978246561
5355425977398302
5800411956233546
6186552644319909
6616724103348537
6997223348907925
7460050963052064
7765927224941597
8070289929079987
8462989367421294
8746850243839694
9.1952302612684E+015
9.41313671204621E+015
9.7580444177606E+015
1.01228577011718E+016
1.04137359817091E+016
1.05939410848676E+016
1.09992993698548E+016
1.08581257105212E+016
1.11945941851383E+016
1.14090148665499E+016
1.15201466977927E+016
1.18057963242806E+016
1.18508361337236E+016
1.21514378761774E+016
1.21062604705751E+016
1.22475258606816E+016
1.23917725009039E+016
1.22311977831238E+016
1.24075501938249E+016
1.23506312493047E+016
1.22815121120026E+016
1.24097058669856E+016
1.23554471148765E+016
1.22684863422655E+016
1.22859610544833E+016
1.21657478767336E+016
1.20025129665424E+016
1.17692416113212E+016
1.17776808424185E+016
1.16529728568018E+016
1.13725977497497E+016
1.13282459211026E+016
1.10352119674046E+016
1.07209423398042E+016
1.05008343504793E+016
1.02834324189519E+016
9.86211297949809E+015
9.79918566935977E+015
9.42941892421757E+015
9.07033881410613E+015
8801888707517523
8544033505186897
8252925897717582
7669701644278192
7420881923068009
6967456713135499
6587645448372084
6184855625023176
5761105320090296
5393815305813587
4895166824892461
4.48230954922915E+015
4108800188556848
3.61164233269366E+015
3.13639895845153E+015
2.7683338191447E+015
2.20288240293461E+015
1.766954837913E+015
1.26373816450662E+015
737804365217210
750554942635907
1.3631972549111E+015
1.88278328472299E+015
2.3854266407994E+015
2811933455454815
3292355031821300
3868066534968666
4349423765217674
4786053070651167
5233882703443097
5725192722540513
6205861971993550
6527515926804057
6996902291203137
7453354616637928
7855272997645272
8243064839641971
8549950140032263
9.0382330436274E+015
9.30526132323766E+015
9.64503210567546E+015
9.98072086872381E+015
1.0315125400953E+016
1.0660216568213E+016
1.09568738874365E+016
1.11618004338636E+016
1.15376672753968E+016
1.16190783362536E+016
1.1892114981482E+016
1.21546484532252E+016
1.2247342399136E+016
1.24684594269617E+016
1.25101510631976E+016
1.26657264538603E+016
1.28124956903345E+016
1.29179402136639E+016
1.30165966598064E+016
1.29341765604489E+016
1.30956685859569E+016
1.31181884906784E+016
1.30949347397745E+016
1.30005896399535E+016
1.30349886797521E+016
1.30059100247757E+016
1.28443262684948E+016
1.28214853060685E+016
1.27168204943079E+016
1.24169984634229E+016
1.23724631732302E+016
1.22364264371732E+016
1.21105718168966E+016
1.19224320018912E+016
1.17083782435708E+016
1.14171789053287E+016
1.10395691791124E+016
1.08160212858077E+016
1.04268993476054E+016
1.02438047251038E+016
9.95636634854637E+015
9.66649710650981E+015
9.31553516979086E+015
8918065731264139
8657550336522418
8095424160826196
7670297894301368
7374695478965032
6948147385461860
6556686312553306
6118259083973004
5588880794165091
5216912510475767
4787337301470316
4.29728399396021E+015
3862090275120982
3348714418627397
2.84947886076037E+015
2.36930954401908E+015
1.83209744621435E+015
1.34196158100873E+015
790925655743594
844056119347258
1.46073917216413E+015
1.95712648953582E+015
2.52575179048467E+015
3.03182129092502E+015
3.54161506074091E+015
4.04394653218981E+015
4611535275406052
5028222310833611
5500819252280565
5969609366656469
6448214673721586
6882330555980458
7435146058237846
7892515691400602
8250311570692886
8745978801498129
8975810252739462
9.52968065888401E+015
9.92091240486057E+015
1.01490009714188E+016
1.05001005042969E+016
1.07675874377712E+016
1.12037213970316E+016
1.1496801216116E+016
1.16720069921571E+016
1.21010776819122E+016
1.22739443232469E+016
1.237819634653E+016
1.28100648248554E+016
1.28727628080617E+016
1.29772900236632E+016
1.33142171521443E+016
1.33111441712556E+016
1.33822355201728E+016
1.3555377353826E+016
1.36604090886778E+016
1.3742095341853E+016
1.37018255325954E+016
1.37426457264898E+016
1.36988901478659E+016
1.38162138062725E+016
1.37782831317212E+016
1.35594593732154E+016
1.35748242776588E+016
1.35194188908898E+016
1.3376273019941E+016
1.31952423398274E+016
1.3178730800724E+016
1.28959248281928E+016
1.26614151075388E+016
1.2463781157549E+016
1.22028071089433E+016
1.19109197899053E+016
1.16758138192281E+016
1.14223158286053E+016
1.11483160102625E+016
1.07625881106538E+016
1.05199143512209E+016
1.00551145254617E+016
9.69612614612304E+015
9.42542863560092E+015
8912470154123560
8574304660209701
8143582816544296
7813122707545335
7296403264383320
6870589017062523
6416017172470056
5891959267484334
5588146947982720
5049274523190381
4.47886964524929E+015
4027783570023084
3551462359200597
3.03255972364603E+015
2.48943557753458E+015
1.92143404584075E+015
1.39581213117885E+015
834273032428524
905300169804761
1.481089644109E+015
2068308772703675
2.63466373702581E+015
3.22150676945202E+015
3.77062093502707E+015
4.25831676167631E+015
4760047396563393
5216086933520599
5762251954750250
6365886305136834
6710243626214447
7286129417830125
7767715975011126
8191603876103202
8605172065255685
9.13234881651648E+015
9.4767520029805E+015
9.90160307718693E+015
1.03485612676373E+016
1.06843417614585E+016
1.10829119692587E+016
1.14745106383265E+016
1.16759514153873E+016
1.19572438301674E+016
1.23527869224654E+016
1.26227047214188E+016
1.30156334866921E+016
1.30746622389865E+016
1.3413928502174E+016
1.36086270674343E+016
1.37846584204305E+016
1.39402796764796E+016
1.39670650621361E+016
1.40927362208672E+016
1.4143050549746E+016
1.44323235417594E+016
1.44692910431963E+016
1.4497360659672E+016
1.4498507294332E+016
1.4604593933071E+016
1.44511283501826E+016
1.44750700818825E+016
1.42288188223106E+016
1.42420280535933E+016
1.41517649731616E+016
1.40213238142452E+016
1.3832633614603E+016
1.38473105382505E+016
1.35057051403567E+016
1.33504966727853E+016
1.29962324282456E+016
1.29176191559591E+016
1.26643504922683E+016
1.23573734611052E+016
1.20947023932028E+016
1.16915915121491E+016
1.12401385138317E+016
1.08892224424992E+016
1.05566983911123E+016
1.0392179250102E+016
9.7808395148005E+015
9.39529507673731E+015
9.02208842761524E+015
8567103794545186
8128722431351282
7727721358071905
7120417776773464
6788673436955353
6355107939333262
5859532439300812
5258237223620537
4713998548619610
4193357614920552
3695332903254441
3129042150473264
2.58384030235797E+015
2034551848314607
1.46401396075296E+015
889132621099399
945492007905495
1.56496826275401E+015
2.16572226687479E+015
2.78325382934003E+015
3.30318843608855E+015
3895434411032466
4382451429963011
4897689421144361
5466466077868322
6152382931453259
6634015354020655
7004011426094857