/*--------------------------------*- C++ -*----------------------------------*\
| =========                 |                                                 |
| \\      /  F ield         | OpenFOAM: The Open Source CFD Toolbox           |
|  \\    /   O peration     | Version:  v1806                                 |
|   \\  /    A nd           | Web:      www.OpenFOAM.com                      |
|    \\/     M anipulation  |                                                 |
\*---------------------------------------------------------------------------*/
FoamFile
{
    version     2.0;
    format      ascii;
    class       volScalarField;
    object      dnp7;
}
// * * * * * * * * * * * * * * * * * * * * * * * * * * * * * * * * * * * * * //

dimensions      [0 -3 0 0 0 0 0];

internalField   nonuniform List<scalar> 
6400
(
435503400000000
649980900000000
1026125000000000
1435943000000000
1486546000000000
1461288000000000
1795054000000000
2340177000000000
2609668000000000
2447276000000000
2.053832E+015
2795196000000000
3077663000000000
3004106000000000
2975321000000000
4442551000000000
4.110973E+015
3710291000000000
3452087000000000
4408781000000000
4535280000000000
5189811000000000
4855068000000000
4939691000000000
4996100999999999
5384725000000000
5337943000000000
6396363000000000
5851847000000000
5616043000000000
5618568000000000
6189205000000000
5662575000000000
5875216000000000
6347615000000000
5931742000000000
5638134000000000
5197927000000000
5918611000000000
5939630000000000
5303829000000000
5620728000000000
5562830000000000
6165571000000000
6101223000000000
5497850000000000
5925897000000000
5753018000000000
5609559000000000
6297165000000000
5728298000000000
6175009000000000
5681185000000000
5137780000000000
4597615000000000
4.2918E+015
4374767000000000
4005218000000000
4665671000000000
4308036000000000
4.261848E+015
4309424000000000
4094233000000000
3861307000000000
3.856552E+015
3260357000000000
2929444000000000
3441636000000000
2475450000000000
2357728000000000
2124184000000000
2263789000000000
1997401000000000
2078725000000000
1806706000000000
1615540000000000
1122740000000000
738894300000000
680358800000000
306356900000000
772856800000000
1251121000000000
1255118000000000
1813451000000000
2457760000000000
2480390000000000
2932517000000000
3709589000000000
4293280000000000
4.203822E+015
4471562000000000
4734234000000000
5803439000000000
5060563000000000
5631244000000000
6580956000000000
6748296000000000
6854787000000000
6993501000000000
7579197000000000
7756851000000000
8837593000000000
8257642000000001
7484517000000000
7661464000000000
7519094000000000
8658637000000000
9.201914E+015
9004570000000000
9.016257E+015
9.371674E+015
9.380951E+015
1.01501E+016
8940625000000000
1.015588E+016
9.19893E+015
8793908000000000
8821606000000000
9.070383E+015
1.000629E+016
1.123228E+016
9.67642E+015
9007113000000000
9.867953E+015
9.478146E+015
9.911049E+015
1.101596E+016
1.067042E+016
9.598158E+015
9.528244E+015
1.021673E+016
9.556424E+015
8553692999999999
8906062000000000
8482690000000000
8810595000000000
7297647000000000
7633394000000000
7026607000000000
7466690000000000
6841825000000000
7204757000000000
6477077000000000
6820654000000000
7013911000000000
5194398000000000
5783582000000000
6101160000000000
5224241000000000
4392933000000000
4148828000000000
3.624013E+015
4.21632E+015
2798494000000000
2888916000000000
2175582000000000
2.025177E+015
1732202000000000
1122701000000000
731125900000000
790482100000000
1532162000000000
2446400000000000
2526640000000000
3875791000000000
4.000029E+015
4081504000000000
4967236000000000
5400267000000000
6326200000000000
6252524000000000
7219748000000000
6475367000000000
7880656000000000
7628332000000000
6872816000000000
7302792000000000
8770062000000000
9.786919E+015
8766080000000000
1.033923E+016
1.114101E+016
1.068005E+016
1.21735E+016
1.147711E+016
1.098E+016
1.139165E+016
1.175811E+016
1.084007E+016
1.262884E+016
1.186089E+016
1.268578E+016
1.252189E+016
1.322863E+016
1.326976E+016
1.38211E+016
1.268171E+016
1.269071E+016
1.339347E+016
1.394027E+016
1.348279E+016
1.295912E+016
1.454388E+016
1.395627E+016
1.396917E+016
1.371419E+016
1.410284E+016
1.355663E+016
1.303851E+016
1.361379E+016
1.26498E+016
1.209237E+016
1.305131E+016
1.236814E+016
1.143801E+016
1.143331E+016
1.163198E+016
1.005699E+016
8997704000000000
9.5947E+015
1.008184E+016
1.003609E+016
1.088106E+016
9.642834E+015
8924193000000000
9.110235E+015
7635961000000000
6849692000000000
6911973000000000
6011519000000000
5543604000000000
5679557000000000
5136675000000000
4596211999999999
3764185000000000
2675198000000000
2225454000000000
1816419000000000
1395387000000000
842371500000000
1037544000000000
2064050000000000
2763588000000000
3833460000000000
4208348000000000
4637728000000000
5741564000000000
6796741000000000
7750070000000000
7773135000000000
7914351000000000
7837517000000000
7818211000000000
9.436537E+015
9.370671E+015
1.041689E+016
1.039222E+016
1.096782E+016
1.17118E+016
1.363469E+016
1.367802E+016
1.504107E+016
1.449331E+016
1.41827E+016
1.496467E+016
1.518121E+016
1.504893E+016
1.618778E+016
1.588741E+016
1.583064E+016
1.544005E+016
1.571328E+016
1.592721E+016
1.606203E+016
1.759484E+016
1.672629E+016
1.60891E+016
1.731082E+016
1.817614E+016
1.710247E+016
1.813497E+016
1.753901E+016
1.712654E+016
1.838592E+016
1.762234E+016
1.793007E+016
1.638303E+016
1.778406E+016
1.686675E+016
1.71111E+016
1.500001E+016
1.677857E+016
1.647059E+016
1.497362E+016
1.446371E+016
1.412632E+016
1.239665E+016
1.386824E+016
1.343476E+016
1.191237E+016
1.107131E+016
1.180158E+016
1.165769E+016
1.172988E+016
1.076612E+016
1.087802E+016
9.331854E+015
8596366000000000
7425037000000000
6563181000000000
7607500000000000
6425233000000000
5784943000000000
5281037000000000
3999135000000000
3642194000000000
3403086000000000
2588076000000000
1.953016E+015
1046888000000000
1108838000000000
1961268000000000
3758067000000000
4403202000000000
4708434000000000
4899887000000000
6991523000000000
6395285000000000
7605036000000000
8492882000000000
9.675616E+015
9.114886E+015
1.129683E+016
1.155281E+016
1.223356E+016
1.279354E+016
1.362506E+016
1.354559E+016
1.507107E+016
1.517682E+016
1.643643E+016
1.652159E+016
1.7541E+016
1.80802E+016
1.654268E+016
1.897897E+016
1.852661E+016
1.940831E+016
1.784919E+016
1.901537E+016
1.994162E+016
1.96953E+016
2.114661E+016
1.993281E+016
2.081083E+016
2.112859E+016
2.058752E+016
2.160648E+016
2.146549E+016
2.256753E+016
1.960527E+016
2.002571E+016
2.019436E+016
2.031993E+016
2.139593E+016
2.064111E+016
2.028709E+016
2.033751E+016
2.084235E+016
2.042016E+016
2.04431E+016
1.819435E+016
1.774655E+016
1.769938E+016
1.834952E+016
1.690217E+016
1.600463E+016
1.599238E+016
1.569096E+016
1.658693E+016
1.299754E+016
1.388062E+016
1.442813E+016
1.384271E+016
1.334102E+016
1.206283E+016
1.08373E+016
1.032931E+016
8853603000000000
8110795000000000
7493852000000000
8238512999999999
6781803000000000
6166424000000000
6220511000000000
4.015407E+015
4.020711E+015
2738260000000000
2182578000000000
1747935000000000
1310556000000000
2559062000000000
2696320000000000
4526910000000000
5170887000000000
5693702000000000
7485113000000000
7616921000000000
9.713291E+015
1.238511E+016
1.210772E+016
1.251491E+016
1.348696E+016
1.414167E+016
1.477458E+016
1.526706E+016
1.589097E+016
1.763655E+016
1.724674E+016
1.88361E+016
1.91638E+016
1.95988E+016
1.916034E+016
2.131523E+016
1.916597E+016
2.021203E+016
2.235772E+016
2.19138E+016
2.308499E+016
2.348157E+016
2.24684E+016
2.385229E+016
2.288636E+016
2.446818E+016
2.440832E+016
2.495397E+016
2.590185E+016
2.506458E+016
2.452218E+016
2.425475E+016
2.408894E+016
2.449914E+016
2.55866E+016
2.336836E+016
2.582975E+016
2.435552E+016
2.49092E+016
2.577523E+016
2.474439E+016
2.397245E+016
2.240645E+016
2.224112E+016
2.236904E+016
1.948764E+016
2.13941E+016
1.882076E+016
2.134955E+016
1.955693E+016
1.874742E+016
1.713707E+016
1.631502E+016
1.636703E+016
1.649946E+016
1.72677E+016
1.500475E+016
1.482225E+016
1.330455E+016
1.214138E+016
1.275422E+016
1.124752E+016
9.778689E+015
8469103000000001
7927546000000000
7223028000000000
6903271000000000
4862570000000000
4141586000000000
3416074000000000
2328072000000000
1371567000000000
1342517000000000
2.372374E+015
3804561000000000
4793298000000000
6014736000000000
6827999000000000
9.126333E+015
9.907797E+015
1.116537E+016
1.270436E+016
1.312554E+016
1.417359E+016
1.590508E+016
1.63814E+016
1.719434E+016
1.79216E+016
1.683246E+016
1.819991E+016
2.052738E+016
2.078881E+016
2.066444E+016
2.232814E+016
2.163736E+016
2.279596E+016
2.331182E+016
2.460304E+016
2.345481E+016
2.693907E+016
2.61879E+016
2.569717E+016
2.719542E+016
2.822243E+016
2.654371E+016
2.7548E+016
2.814563E+016
2.692253E+016
3.033085E+016
3.090294E+016
2.860583E+016
2.773952E+016
3.08201E+016
2.863278E+016
2.824243E+016
2.830562E+016
2.871784E+016
2.961838E+016
2.733296E+016
2.692081E+016
2.952071E+016
2.75268E+016
2.563819E+016
2.491671E+016
2.429769E+016
2.538802E+016
2.304329E+016
2.347829E+016
2.189685E+016
2.198646E+016
2.130682E+016
2.097573E+016
2.06259E+016
1.857443E+016
1.924041E+016
1.659406E+016
1.698877E+016
1.633472E+016
1.57752E+016
1.56223E+016
1.28824E+016
1.178086E+016
1.11642E+016
9.40394E+015
8413083000000000
8871868000000000
7344689000000000
5608237000000000
4121303000000000
4.136789E+015
2689861000000000
1636205000000000
1899932000000000
2671261000000000
4628350000000000
5484035000000000
6665841000000000
9.217565E+015
9.315041E+015
1.116095E+016
1.157402E+016
1.330857E+016
1.432797E+016
1.6148E+016
1.592095E+016
1.797583E+016
1.870277E+016
1.815082E+016
1.880373E+016
2.036947E+016
2.28528E+016
2.407647E+016
2.3241E+016
2.536302E+016
2.416522E+016
2.443899E+016
2.402615E+016
2.869594E+016
2.522087E+016
2.754578E+016
2.769705E+016
2.873471E+016
2.843968E+016
3.316554E+016
3.155283E+016
3.164786E+016
3.0745E+016
3.187797E+016
3.122858E+016
3.292231E+016
3.292501E+016
3.288396E+016
3.29009E+016
3.226882E+016
3.095551E+016
3.237432E+016
3.209589E+016
3.170948E+016
3.174072E+016
3.088215E+016
3.128671E+016
3.127773E+016
2.941857E+016
2.936562E+016
2.947084E+016
2.906677E+016
2.657657E+016
2.675727E+016
2.710762E+016
2.449467E+016
2.352136E+016
2.400729E+016
2.305415E+016
2.314997E+016
2.098501E+016
1.99865E+016
1.834028E+016
1.741401E+016
1.698932E+016
1.653433E+016
1.348078E+016
1.514289E+016
1.366987E+016
1.149066E+016
1.004317E+016
8969700000000000
8177991000000000
7091876000000000
5102110000000000
3538774000000000
3090770000000000
1.715937E+015
2045970000000000
3267626000000000
5366658000000000
5832077000000000
7506255000000000
8958976000000000
9.937923E+015
1.117936E+016
1.473711E+016
1.498363E+016
1.618881E+016
1.628664E+016
1.789449E+016
2.002061E+016
2.092504E+016
2.00225E+016
2.134178E+016
2.259937E+016
2.504786E+016
2.509368E+016
2.438249E+016
2.574686E+016
2.651871E+016
2.605984E+016
2.845996E+016
3.141932E+016
2.986681E+016
3.033687E+016
3.115649E+016
3.353672E+016
3.225542E+016
3.428255E+016
3.440471E+016
3.463344E+016
3.373507E+016
3.240221E+016
3.419997E+016
3.567439E+016
3.310808E+016
3.584674E+016
3.645818E+016
3.599171E+016
3.344885E+016
3.528263E+016
3.659483E+016
3.475099E+016
3.390394E+016
3.506643E+016
3.295134E+016
3.243803E+016
3.373366E+016
3.408983E+016
3.143231E+016
3.06911E+016
3.026629E+016
2.821269E+016
2.813998E+016
2.89509E+016
2.660333E+016
2.703229E+016
2.508798E+016
2.35351E+016
2.234833E+016
2.200138E+016
2.113134E+016
2.008718E+016
1.824394E+016
1.733756E+016
1.694447E+016
1.535465E+016
1.538113E+016
1.316883E+016
1.155524E+016
1.033276E+016
8526889000000001
7662167000000000
6165286000000000
4425180000000000
3200974000000000
2.087067E+015
2444900000000000
3854040000000000
4900182000000000
6024346000000000
8173491000000000
9.52963E+015
1.07894E+016
1.444075E+016
1.630676E+016
1.58872E+016
1.716375E+016
1.740135E+016
2.146644E+016
2.148076E+016
2.365121E+016
2.278866E+016
2.444356E+016
2.695047E+016
2.67331E+016
2.732215E+016
2.751335E+016
2.872392E+016
3.176181E+016
3.13287E+016
3.134239E+016
3.184406E+016
3.408885E+016
3.524715E+016
3.578185E+016
3.799634E+016
3.828696E+016
3.801124E+016
3.659671E+016
3.770874E+016
3.672565E+016
3.641378E+016
3.623538E+016
3.778162E+016
3.846485E+016
3.803995E+016
3.897449E+016
3.911411E+016
3.784853E+016
3.91942E+016
3.714013E+016
3.560183E+016
3.93356E+016
3.853615E+016
3.574784E+016
3.564444E+016
3.680116E+016
3.462503E+016
3.24572E+016
3.419169E+016
3.486946E+016
3.344541E+016
3.097003E+016
2.856176E+016
2.890565E+016
2.917899E+016
2.642388E+016
2.529203E+016
2.563187E+016
2.500463E+016
2.368036E+016
2.284919E+016
2.25554E+016
2.244299E+016
1.807122E+016
1.794975E+016
1.554728E+016
1.559665E+016
1.343438E+016
1.092324E+016
8993673000000000
8142321000000001
6316418000000000
5247073000000000
4352603000000000
2305918000000000
2578882000000000
4423294000000000
5840419000000000
7041713000000000
1.003809E+016
1.192978E+016
1.166414E+016
1.389007E+016
1.60613E+016
1.662582E+016
1.972365E+016
2.201894E+016
2.096558E+016
2.352095E+016
2.466136E+016
2.514907E+016
2.431758E+016
2.742657E+016
2.762351E+016
3.001107E+016
3.013043E+016
3.103917E+016
3.351087E+016
3.631122E+016
3.504164E+016
3.625435E+016
3.766252E+016
3.647736E+016
3.759365E+016
3.990936E+016
4.137606E+016
4.038411E+016
4.010796E+016
4.068564E+016
4.105863E+016
4.245208E+016
4.087411E+016
4.167718E+016
3.945747E+016
4.092988E+016
4.318376E+016
4.185367E+016
4.183502E+016
4.041972E+016
4.116753E+016
3.991665E+016
3.919812E+016
4.022393E+016
3.87228E+016
4.013431E+016
3.880071E+016
3.835233E+016
3.564596E+016
3.629769E+016
3.712918E+016
3.606749E+016
3.464151E+016
3.143729E+016
3.191E+016
3.344104E+016
3.067887E+016
3.009874E+016
2.682335E+016
2.822142E+016
2.590159E+016
2.414824E+016
2.324166E+016
2.244392E+016
1.896363E+016
1.888972E+016
1.751725E+016
1.62248E+016
1.352541E+016
1.159574E+016
1.154011E+016
8667186000000000
6858610000000000
5687769000000000
4365318000000000
2749459000000000
2395922000000000
5046254000000000
6102284000000000
9.149233E+015
1.059174E+016
1.234539E+016
1.467542E+016
1.448457E+016
1.619233E+016
1.80397E+016
2.019159E+016
2.212923E+016
2.378794E+016
2.478811E+016
2.75815E+016
2.721265E+016
2.690717E+016
2.830011E+016
2.881961E+016
2.872976E+016
3.282658E+016
3.518662E+016
3.501667E+016
3.630111E+016
3.754659E+016
3.699149E+016
4.018872E+016
3.900099E+016
4.133336E+016
4.1428E+016
4.267206E+016
4.227727E+016
4.252889E+016
4.357236E+016
4.379928E+016
4.374057E+016
4.588137E+016
4.560273E+016
4.451263E+016
4.428988E+016
4.670184E+016
4.405327E+016
4.493057E+016
4.447524E+016
4.348011E+016
4.359455E+016
4.392562E+016
4.413893E+016
4.203558E+016
4.517509E+016
4.496783E+016
3.986129E+016
3.812365E+016
3.813447E+016
3.887348E+016
3.800351E+016
3.692308E+016
3.679845E+016
3.420857E+016
3.43588E+016
3.242363E+016
3.111394E+016
2.926348E+016
2.682397E+016
2.824438E+016
2.537896E+016
2.350986E+016
2.266865E+016
2.178725E+016
1.767704E+016
1.802964E+016
1.57462E+016
1.393174E+016
1.245528E+016
1.068014E+016
1.007872E+016
7220499000000000
6889861000000000
4706626000000000
2248540000000000
2783727000000000
5141797000000000
7256618000000000
8819063000000000
1.114615E+016
1.361808E+016
1.438006E+016
1.4884E+016
1.859337E+016
2.114753E+016
2.189271E+016
2.257008E+016
2.469917E+016
2.988279E+016
2.737917E+016
3.038408E+016
3.265507E+016
3.040104E+016
3.087833E+016
3.230648E+016
3.447428E+016
3.710997E+016
3.915275E+016
3.748399E+016
3.898423E+016
4.080485E+016
4.055842E+016
4.453551E+016
4.503054E+016
4.596759E+016
4.532242E+016
4.79735E+016
4.644939E+016
4.668216E+016
4.923586E+016
4.720043E+016
4.69347E+016
4.744764E+016
4.845202E+016
4.948973E+016
4.871184E+016
4.906362E+016
4.825866E+016
4.883953E+016
4.749469E+016
4.488732E+016
4.604339E+016
4.415611E+016
4.591156E+016
4.403203E+016
4.614542E+016
4.198972E+016
4.151631E+016
4.211523E+016
4.167726E+016
4.129632E+016
4.086706E+016
3.783174E+016
3.474844E+016
3.573861E+016
3.397209E+016
3.277551E+016
3.259059E+016
3.013003E+016
2.817495E+016
2.692201E+016
2.511453E+016
2.29546E+016
2.175764E+016
2.123956E+016
1.862083E+016
1.622081E+016
1.529549E+016
1.341777E+016
1.224415E+016
1.07795E+016
8051678000000001
5738689000000000
4509460000000000
2923982000000000
2.962006E+015
5239772000000000
7545940000000000
8883228000000000
1.131079E+016
1.372533E+016
1.629627E+016
1.727232E+016
1.939149E+016
1.929E+016
2.352587E+016
2.350316E+016
2.749125E+016
2.903034E+016
2.946703E+016
3.311597E+016
3.411515E+016
3.539534E+016
3.506759E+016
3.628998E+016
3.891043E+016
3.778196E+016
4.100851E+016
4.145656E+016
4.366131E+016
4.394594E+016
4.656072E+016
4.815208E+016
4.665411E+016
4.979339E+016
5.004424E+016
4.908429E+016
4.749602E+016
5.236622E+016
5.106937E+016
5.333267E+016
4.988945E+016
5.045779E+016
4.999638E+016
5.213521E+016
5.081293E+016
4.937734E+016
5.158787E+016
5.326952E+016
5.098252E+016
4.945661E+016
4.996554E+016
4.924075E+016
4.791026E+016
4.997441E+016
4.888656E+016
4.351034E+016
4.824929E+016
4.42514E+016
4.53195E+016
4.405874E+016
4.317112E+016
4.024795E+016
3.993827E+016
3.820545E+016
3.861933E+016
3.525183E+016
3.453131E+016
3.334383E+016
3.080056E+016
2.707273E+016
2.596501E+016
2.54409E+016
2.551076E+016
2.239208E+016
1.903267E+016
1.733799E+016
1.453492E+016
1.430623E+016
1.237809E+016
1.130777E+016
9.133293E+015
8111264999999999
4963129000000000
3313879000000000
3.738338E+015
5435273000000000
7996205000000000
9.846596E+015
1.15307E+016
1.456162E+016
1.642179E+016
1.747012E+016
2.10759E+016
2.19618E+016
2.343277E+016
2.627862E+016
2.728882E+016
2.993565E+016
3.130013E+016
3.478961E+016
3.776877E+016
3.574684E+016
3.693628E+016
3.67423E+016
4.067608E+016
4.038275E+016
4.297479E+016
4.500376E+016
4.682336E+016
4.573128E+016
4.841847E+016
5.167558E+016
5.087304E+016
4.95443E+016
5.138342E+016
5.319741E+016
5.325802E+016
5.376263E+016
5.265598E+016
5.253539E+016
5.489809E+016
5.252671E+016
5.421511E+016
5.387538E+016
5.18839E+016
5.298989E+016
5.196277E+016
5.283335E+016
5.370654E+016
5.239287E+016
5.171494E+016
5.160737E+016
5.492688E+016
5.354791E+016
4.921692E+016
5.130774E+016
5.110376E+016
4.802044E+016
4.657287E+016
4.401272E+016
4.353968E+016
4.209671E+016
4.29842E+016
4.167359E+016
3.93259E+016
3.941316E+016
3.564826E+016
3.333011E+016
3.207015E+016
2.930751E+016
2.837995E+016
2.644906E+016
2.578011E+016
2.228997E+016
2.113534E+016
2.028041E+016
1.842618E+016
1.593863E+016
1.361002E+016
1.186707E+016
1.128577E+016
7310373000000000
5706965000000000
3487107000000000
3579031000000000
5433632000000000
8317681000000000
1.140862E+016
1.2057E+016
1.427527E+016
1.60524E+016
1.910176E+016
2.244598E+016
2.242503E+016
2.527579E+016
2.833077E+016
2.93955E+016
3.157162E+016
3.272134E+016
3.379153E+016
3.45997E+016
3.759582E+016
3.831935E+016
4.382501E+016
4.211918E+016
4.536638E+016
4.509854E+016
4.5543E+016
4.811614E+016
4.813128E+016
5.276297E+016
5.131729E+016
5.026754E+016
5.266315E+016
5.588425E+016
5.362618E+016
5.655339E+016
5.750588E+016
5.423501E+016
5.462242E+016
5.551633E+016
5.659563E+016
5.575869E+016
5.838051E+016
5.853324E+016
5.727332E+016
5.73669E+016
5.799382E+016
6.00035E+016
5.634741E+016
5.601546E+016
5.512418E+016
5.734113E+016
5.396747E+016
5.280513E+016
5.395648E+016
5.19868E+016
5.192447E+016
4.854607E+016
4.956282E+016
4.609978E+016
4.542126E+016
4.53397E+016
4.751914E+016
4.182727E+016
3.933904E+016
3.586287E+016
3.656026E+016
3.340555E+016
3.533531E+016
2.956981E+016
2.83414E+016
2.627067E+016
2.42695E+016
2.392658E+016
2.019331E+016
1.815187E+016
1.479207E+016
1.286176E+016
1.228515E+016
1.115729E+016
7493733000000000
5228271000000000
3196378000000000
4307638000000000
5593271000000000
8265281000000000
1.139641E+016
1.474809E+016
1.61998E+016
1.842287E+016
2.094965E+016
2.277475E+016
2.318919E+016
2.77945E+016
2.938711E+016
3.104487E+016
3.199349E+016
3.287895E+016
3.550997E+016
3.788663E+016
3.886211E+016
4.111906E+016
4.346463E+016
4.447669E+016
4.608902E+016
4.940928E+016
4.871437E+016
5.061413E+016
5.338245E+016
5.522375E+016
5.628118E+016
5.484588E+016
5.578147E+016
5.736656E+016
5.561025E+016
5.83565E+016
5.941741E+016
6.150475E+016
5.855359E+016
5.892817E+016
6.150627E+016
6.020843E+016
6.013349E+016
6.028365E+016
6.17407E+016
5.935439E+016
6.108667E+016
6.343843E+016
6.260544E+016
6.022254E+016
6.04067E+016
5.83569E+016
5.994314E+016
5.462771E+016
5.634586E+016
5.554127E+016
5.161879E+016
5.198763E+016
5.193957E+016
5.133485E+016
4.711845E+016
4.546661E+016
4.429156E+016
4.411266E+016
4.093857E+016
4.104861E+016
3.970294E+016
3.691425E+016
3.428001E+016
3.101986E+016
2.934521E+016
2.886358E+016
2.444277E+016
2.465677E+016
2.307947E+016
1.964278E+016
1.758684E+016
1.468362E+016
1.299033E+016
1.199483E+016
8505293000000000
6075542000000000
4.137679E+015
4178412000000000
6162675000000000
9.32484E+015
1.141157E+016
1.348595E+016
1.630158E+016
1.781348E+016
2.219531E+016
2.266447E+016
2.531628E+016
2.910038E+016
3.149238E+016
3.077204E+016
3.248674E+016
3.379803E+016
3.912501E+016
4.016473E+016
3.972762E+016
4.24966E+016
4.263951E+016
4.718568E+016
5.081848E+016
5.19351E+016
5.001631E+016
5.302764E+016
5.55708E+016
5.439029E+016
5.531239E+016
5.834581E+016
5.871362E+016
6.118512E+016
6.126505E+016
6.055434E+016
6.086261E+016
6.344137E+016
6.598307E+016
6.421922E+016
6.387463E+016
6.395681E+016
6.311471E+016
6.44744E+016
6.237748E+016
6.416016E+016
6.499544E+016
6.385176E+016
6.362263E+016
6.285157E+016
6.102878E+016
6.082156E+016
5.868083E+016
6.00048E+016
5.54852E+016
5.666206E+016
5.535454E+016
5.724288E+016
5.584535E+016
5.385433E+016
4.897405E+016
4.685855E+016
4.617872E+016
4.665025E+016
4.397835E+016
4.240018E+016
3.985466E+016
3.616394E+016
3.501787E+016
3.278421E+016
3.2541E+016
3.008615E+016
2.632973E+016
2.565628E+016
2.25752E+016
2.152645E+016
2.004461E+016
1.488071E+016
1.342195E+016
1.135668E+016
8804023000000000
6941067000000000
4840797999999999
4.141442E+015
6626302000000000
1.060938E+016
1.289394E+016
1.544657E+016
1.771556E+016
1.977799E+016
2.45864E+016
2.618636E+016
2.689265E+016
3.094638E+016
3.153843E+016
3.382706E+016
3.361627E+016
3.662156E+016
3.948303E+016
4.047688E+016
4.258653E+016
4.54972E+016
4.408087E+016
4.84236E+016
5.06192E+016
4.931305E+016
5.301566E+016
5.626785E+016
5.746261E+016
5.629387E+016
6.089143E+016
5.865488E+016
6.333516E+016
6.119419E+016
6.109187E+016
6.178534E+016
6.159791E+016
6.258183E+016
6.347281E+016
6.507702E+016
6.648182E+016
6.629014E+016
6.443405E+016
6.621874E+016
6.847461E+016
6.40247E+016
6.649007E+016
6.750874E+016
6.514951E+016
6.383884E+016
6.554369E+016
6.290612E+016
6.055179E+016
6.225577E+016
5.897272E+016
6.114655E+016
6.055623E+016
5.721711E+016
5.57258E+016
5.349869E+016
5.068073E+016
4.927547E+016
4.710449E+016
4.853528E+016
4.54215E+016
4.331037E+016
4.123809E+016
3.965014E+016
3.896369E+016
3.649229E+016
3.342531E+016
3.167616E+016
2.644355E+016
2.58799E+016
2.459636E+016
2.232257E+016
1.945573E+016
1.642418E+016
1.513245E+016
1.233205E+016
1.0118E+016
7682883000000000
4262517000000000
4.093828E+015
6975206000000000
9.848656E+015
1.293182E+016
1.671042E+016
1.677508E+016
2.117637E+016
2.354241E+016
2.666475E+016
2.84927E+016
3.199125E+016
3.229262E+016
3.71598E+016
3.598306E+016
3.949092E+016
3.98559E+016
3.994981E+016
4.283762E+016
4.517149E+016
4.820542E+016
4.931358E+016
5.435059E+016
5.465745E+016
5.595778E+016
5.584754E+016
5.77325E+016
6.001889E+016
6.297321E+016
6.664924E+016
6.494037E+016
6.241821E+016
6.336749E+016
6.528244E+016
6.602079E+016
6.469849E+016
6.631612E+016
6.689923E+016
6.802092E+016
7.096438E+016
6.963532E+016
7.051996E+016
7.257028E+016
6.740582E+016
6.708897E+016
6.78911E+016
6.613823E+016
6.79718E+016
6.471591E+016
6.476455E+016
6.405504E+016
6.465416E+016
6.236518E+016
6.191239E+016
6.132088E+016
5.637312E+016
5.685298E+016
5.709496E+016
5.204065E+016
5.198997E+016
4.904594E+016
4.988748E+016
4.881989E+016
4.607733E+016
4.447089E+016
4.289334E+016
3.719036E+016
3.775483E+016
3.559514E+016
3.095896E+016
2.842282E+016
2.783897E+016
2.433612E+016
2.304791E+016
2.002549E+016
1.602797E+016
1.372994E+016
1.153359E+016
9.746403E+015
6796389000000000
4728743000000000
5003324000000000
7907618000000000
1.048159E+016
1.410378E+016
1.641019E+016
1.902831E+016
2.381859E+016
2.387385E+016
2.82543E+016
2.956064E+016
3.104233E+016
3.38715E+016
3.450707E+016
3.764426E+016
3.8175E+016
4.371081E+016
4.507061E+016
4.517921E+016
4.686863E+016
5.099842E+016
5.132713E+016
5.450065E+016
5.650634E+016
5.640362E+016
5.836395E+016
6.090731E+016
6.170229E+016
6.259155E+016
6.670279E+016
6.797826E+016
6.57153E+016
6.537854E+016
6.813876E+016
6.859739E+016
6.865944E+016
7.044244E+016
7.078206E+016
7.08648E+016
7.218409E+016
7.08833E+016
7.231484E+016
7.143988E+016
7.363768E+016
7.233532E+016
6.902675E+016
6.90373E+016
6.97191E+016
6.840999E+016
6.852694E+016
6.824368E+016
6.845438E+016
6.347142E+016
6.232755E+016
6.271043E+016
6.206455E+016
6.093697E+016
5.614483E+016
5.330302E+016
5.378588E+016
5.316419E+016
5.049387E+016
5.004107E+016
4.689653E+016
4.613531E+016
4.368305E+016
4.150182E+016
3.743567E+016
3.710043E+016
3.415762E+016
3.116771E+016
2.805788E+016
2.648011E+016
2.19774E+016
2.020288E+016
1.781246E+016
1.392553E+016
1.23186E+016
1.142028E+016
8180223000000000
4.172851E+015
4081411000000000
6715268000000000
1.123753E+016
1.360151E+016
1.683314E+016
2.210491E+016
2.172774E+016
2.56441E+016
2.712773E+016
2.949984E+016
3.256428E+016
3.641153E+016
3.674857E+016
3.883337E+016
4.268242E+016
4.575229E+016
4.687975E+016
4.878572E+016
4.804187E+016
5.308475E+016
5.337488E+016
5.25174E+016
5.906636E+016
6.290061E+016
5.780569E+016
6.452471E+016
6.537625E+016
6.544107E+016
6.489892E+016
6.921075E+016
6.830863E+016
7.187014E+016
7.277907E+016
7.095356E+016
7.106286E+016
6.955353E+016
7.356152E+016
7.137236E+016
7.209083E+016
7.105448E+016
7.244065E+016
7.204477E+016
7.369893E+016
7.378978E+016
6.902611E+016
7.22244E+016
7.108718E+016
6.854497E+016
7.025133E+016
6.885449E+016
6.916771E+016
6.348486E+016
6.740107E+016
6.063735E+016
6.201626E+016
5.926738E+016
5.973814E+016
5.891421E+016
5.429768E+016
5.484371E+016
5.632185E+016
4.996618E+016
4.788855E+016
4.681413E+016
4.316556E+016
4.379343E+016
4.072572E+016
3.58802E+016
3.302139E+016
3.176768E+016
2.812465E+016
2.672314E+016
2.139956E+016
2.151979E+016
1.984032E+016
1.669994E+016
1.518815E+016
1.103553E+016
8053661999999999
4372227000000000
4309666000000000
7995973000000000
1.016681E+016
1.483925E+016
1.587689E+016
2.003168E+016
2.272907E+016
2.478869E+016
3.03969E+016
3.065017E+016
3.477569E+016
3.739003E+016
3.909609E+016
4.152214E+016
4.430774E+016
4.795849E+016
4.692271E+016
4.797648E+016
5.182875E+016
5.521584E+016
5.584883E+016
5.747026E+016
5.942459E+016
6.150944E+016
6.3029E+016
6.451965E+016
6.33604E+016
6.582052E+016
6.826354E+016
6.960056E+016
7.201171E+016
7.425879E+016
7.288006E+016
7.351434E+016
7.243369E+016
7.133695E+016
7.35363E+016
7.249621E+016
7.538919E+016
7.382364E+016
7.491996E+016
7.57397E+016
7.492886E+016
7.715106E+016
7.455349E+016
7.547241E+016
7.541651E+016
7.374535E+016
7.164476E+016
7.112563E+016
7.147482E+016
6.769424E+016
6.805998E+016
6.44592E+016
6.416974E+016
6.062899E+016
6.064244E+016
5.767607E+016
5.721962E+016
5.634958E+016
5.518211E+016
5.271822E+016
4.9196E+016
4.73139E+016
4.263511E+016
4.279527E+016
4.152543E+016
3.880593E+016
3.513211E+016
3.171216E+016
3.023023E+016
2.776632E+016
2.400859E+016
2.102596E+016
1.863504E+016
1.559173E+016
1.428583E+016
1.172848E+016
8167927000000001
4.126179E+015
4285863000000000
7732140000000000
1.102155E+016
1.451572E+016
1.751132E+016
1.84226E+016
2.326495E+016
2.59855E+016
3.009125E+016
3.204068E+016
3.599017E+016
3.77112E+016
4.006784E+016
4.385569E+016
4.512361E+016
4.816115E+016
5.09667E+016
5.041348E+016
5.210279E+016
5.704257E+016
5.661832E+016
5.974136E+016
5.91027E+016
6.015391E+016
6.403731E+016
6.720613E+016
6.590336E+016
7.114381E+016
7.484257E+016
7.214743E+016
7.421821E+016
7.225758E+016
7.194889E+016
7.42541E+016
7.451491E+016
7.331017E+016
7.787765E+016
7.729313E+016
7.567807E+016
7.591861E+016
7.50057E+016
7.675496E+016
7.74376E+016
7.516816E+016
7.849129E+016
7.674313E+016
7.578721E+016
7.803975E+016
7.813711E+016
7.562044E+016
6.90579E+016
6.933747E+016
7.282937E+016
7.04062E+016
6.944542E+016
6.110262E+016
6.314758E+016
6.144586E+016
5.866604E+016
5.714915E+016
5.646816E+016
5.410446E+016
5.168733E+016
4.814723E+016
4.669365E+016
4.416898E+016
4.289932E+016
3.843639E+016
3.458733E+016
3.277772E+016
3.151522E+016
2.609177E+016
2.460485E+016
2.382445E+016
1.961843E+016
1.667884E+016
1.458063E+016
1.196109E+016
7357522000000000
4727201000000000
4629597000000000
8511008000000000
1.291612E+016
1.510459E+016
1.682097E+016
2.02208E+016
2.396274E+016
2.84531E+016
2.965857E+016
3.413406E+016
3.643753E+016
3.872175E+016
4.167266E+016
4.391852E+016
4.481063E+016
4.605566E+016
4.804161E+016
5.124599E+016
5.302358E+016
5.750371E+016
5.882735E+016
6.586288E+016
6.317137E+016
6.337728E+016
6.53671E+016
6.893562E+016
7.085712E+016
7.148868E+016
7.325973E+016
7.557222E+016
7.46108E+016
7.247739E+016
7.297278E+016
7.523212E+016
7.579063E+016
7.751172E+016
7.912663E+016
7.959167E+016
7.763008E+016
7.736861E+016
7.902854E+016
7.835451E+016
8.009302E+016
7.931686E+016
7.592923E+016
8.228873E+016
7.810605E+016
7.896819E+016
7.67654E+016
7.620719E+016
7.233986E+016
7.474012E+016
7.267573E+016
7.046743E+016
6.681724E+016
7.055159E+016
6.614285E+016
6.217334E+016
6.160842E+016
5.868954E+016
5.683079E+016
5.516215E+016
5.378271E+016
5.02736E+016
4.68954E+016
4.61451E+016
4.468965E+016
3.901861E+016
3.84807E+016
3.231126E+016
3.209962E+016
2.840671E+016
2.623266E+016
2.506752E+016
2.109248E+016
1.690163E+016
1.508155E+016
1.057689E+016
7751996000000000
4693861000000000
5298048000000000
8912770000000000
1.218482E+016
1.626596E+016
1.840231E+016
2.271687E+016
2.425696E+016
2.957302E+016
3.100167E+016
3.439141E+016
3.624663E+016
3.871968E+016
4.059339E+016
4.374529E+016
4.72271E+016
4.895691E+016
5.020009E+016
5.339296E+016
5.383304E+016
5.928471E+016
6.208785E+016
6.392256E+016