/*--------------------------------*- C++ -*----------------------------------*\
| =========                 |                                                 |
| \\      /  F ield         | OpenFOAM: The Open Source CFD Toolbox           |
|  \\    /   O peration     | Version:  v1806                                 |
|   \\  /    A nd           | Web:      www.OpenFOAM.com                      |
|    \\/     M anipulation  |                                                 |
\*---------------------------------------------------------------------------*/
FoamFile
{
    version     2.0;
    format      ascii;
    class       volScalarField;
    object      dnp8;
}
// * * * * * * * * * * * * * * * * * * * * * * * * * * * * * * * * * * * * * //

dimensions      [0 -3 0 0 0 0 0];

internalField   nonuniform List<scalar> 
6400
(
55189120000000
82368760000000
130035500000000
181969700000000
188449500000000
185225600000000
227478000000000
296732200000000
330748600000000
310130800000000
260299300000000
354794600000000
390059800000000
381182800000000
377047300000000
563021900000000
521077700000000
470209400000000
438155900000000
559742300000000
574876600000000
657693600000000
615340400000000
625989700000000
633225100000000
682390400000000
676450300000000
811324400000000
741850300000000
711720500000000
712147900000000
784653600000000
717613400000000
745522500000000
804479300000000
751699300000000
714789500000000
658706700000000
750219400000000
752762600000000
673049000000000
712286100000000
705774600000000
781552600000000
773294800000000
697103200000000
751385200000000
729067000000000
711109600000000
798554300000000
726360900000000
782855500000000
720294400000000
651356900000000
582723000000000
543887400000000
554461000000000
507743900000000
591273700000000
546509000000000
540088000000000
546153200000000
519183300000000
489484800000000
488863300000000
413408600000000
371234400000000
436408100000000
313701100000000
299031400000000
269220800000000
287350300000000
253216400000000
263426200000000
228954600000000
204729100000000
142279100000000
93636300000000
86218400000000
38858590000000
97940190000000
158548100000000
159085200000000
230186700000000
311499400000000
314370300000000
371632600000000
470213300000000
544508600000000
532728900000000
566785700000000
600163800000000
736151600000000
641360100000000
713766800000000
833995400000000
855522600000000
868909100000000
886545500000000
960813100000000
983137000000000
1120371000000000
1.046784E+015
948492600000000
971106700000000
952856400000000
1097431000000000
1166898000000000
1141309000000000
1142707000000000
1187663000000000
1189278000000000
1286599000000000
1133000000000000
1287080000000000
1166435000000000
1114733000000000
1117917000000000
1149671000000000
1268185000000000
1424467000000000
1226824000000000
1141738000000000
1250740000000000
1.201364E+015
1.256509E+015
1397061000000000
1352338000000000
1.216325E+015
1207637000000000
1.295006E+015
1211535000000000
1084080000000000
1129145000000000
1075158000000000
1117296000000000
925107800000000
967687300000000
890792100000000
946938000000000
867072600000000
913289600000000
821000200000000
864449200000000
888861000000000
658289500000000
733142900000000
773168900000000
662167200000000
556719500000000
525838300000000
459252700000000
534373100000000
354662700000000
366097500000000
275802600000000
256689800000000
219555200000000
142274200000000
92651850000000
100173800000000
194163100000000
310539400000000
320378400000000
491454900000000
506964600000000
517395100000000
629870000000000
684863800000000
802019800000000
792809900000000
915399200000000
821085800000000
999141200000000
967180100000000
870994400000000
925695700000000
1111420000000000
1240772000000000
1111705000000000
1310446000000000
1412147000000000
1353682000000000
1542724000000000
1454732000000000
1391561000000000
1443637000000000
1490325000000000
1374256000000000
1.600662E+015
1504057000000000
1608127000000000
1587338000000000
1676820000000000
1681789000000000
1751892000000000
1.607172E+015
1.609247E+015
1699344000000000
1767283000000000
1709017000000000
1644480000000000
1843219000000000
1769102000000000
1770547000000000
1738437000000000
1788740000000000
1718264000000000
1652318000000000
1725842000000000
1604483000000000
1.533154E+015
1.65433E+015
1567567000000000
1449884000000000
1449142000000000
1474143000000000
1274801000000000
1140390000000000
1216296000000000
1278010000000000
1272139000000000
1379384000000000
1.222209E+015
1131173000000000
1154844000000000
967685300000000
868207400000000
876222200000000
761809000000000
702797000000000
719961900000000
651330700000000
582849300000000
477054600000000
339045200000000
282020400000000
230185500000000
177381300000000
106959100000000
131482700000000
261574000000000
350532200000000
486153400000000
533735200000000
587726700000000
727599000000000
861511300000000
982454200000000
985180000000000
1003466000000000
993783000000000
991747600000000
1196114000000000
1187724000000000
1.320213E+015
1317564000000000
1389959000000000
1.484447E+015
1728151000000000
1734275000000000
1906121000000000
1836710000000000
1797947000000000
1897127000000000
1.924101E+015
1907732000000000
2051621000000000
2.013637E+015
2007079000000000
1956891000000000
1991396000000000
2.018448E+015
2035673000000000
2230662000000000
2.120281E+015
2.04056E+015
2194282000000000
2303696000000000
2167839000000000
2299422000000000
2223290000000000
2170618000000000
2331132000000000
2233253000000000
2272890000000000
2076606000000000
2254546000000000
2.138355E+015
2168463000000000
1.901693E+015
2.126704E+015
2.087881E+015
1898426000000000
1833281000000000
1790673000000000
1.571109E+015
1758131000000000
1703176000000000
1510100000000000
1403694000000000
1495794000000000
1.477378E+015
1486726000000000
1365024000000000
1379001000000000
1182975000000000
1089818000000000
941152700000000
832279500000000
964403500000000
814255300000000
733313000000000
669643300000000
507317300000000
462349500000000
431322500000000
328206000000000
247504500000000
132666700000000
140537800000000
248549700000000
476379000000000
557995300000000
596675700000000
621042400000000
886015900000000
810479300000000
963944900000000
1076361000000000
1226221000000000
1155177000000000
1431589000000000
1464504000000000
1552019000000000
1621779000000000
1727156000000000
1717188000000000
1.910881E+015
1923306000000000
2.082936E+015
2.093767E+015
2223196000000000
2291643000000000
2.096592E+015
2405904000000000
2348184000000000
2460498000000000
2262146000000000
2410144000000000
2527798000000000
2496669000000000
2680024000000000
2526408000000000
2638280000000000
2678479000000000
2609610000000000
2738483000000000
2720792000000000
2860101000000000
2485124000000000
2538126000000000
2560514000000000
2575940000000000
2711984000000000
2616453000000000
2571326000000000
2577963000000000
2642426000000000
2588571000000000
2591582000000000
2306208000000000
2249480000000000
2243800000000000
2326057000000000
2142103000000000
2028493000000000
2027146000000000
1.989441E+015
2.102368E+015
1.647769E+015
1.760153E+015
1828933000000000
1754474000000000
1.691378E+015
1.528812E+015
1.373652E+015
1309394000000000
1123147000000000
1.028193E+015
950084900000000
1.044344E+015
860010900000000
781919000000000
788646100000000
509122900000000
509558900000000
348218900000000
277073800000000
221927800000000
166387500000000
324359600000000
342001600000000
573680800000000
655522200000000
721749700000000
948614200000000
965479900000000
1231036000000000
1569886000000000
1534452000000000
1586586000000000
1709504000000000
1792364000000000
1872591000000000
1.935261E+015
2.013914E+015
2235059000000000
2185903000000000
2387298000000000
2428956000000000
2483874000000000
2428745000000000
2701716000000000
2429071000000000
2562502000000000
2834414000000000
2777945000000000
2927298000000000
2976140000000000
2847533000000000
3023232000000000
2900710000000000
3101457000000000
3093872000000000
3163020000000000
3283795000000000
3177053000000000
3108930000000000
3074041000000000
3053767000000000
3105457000000000
3243731000000000
2961943000000000
3273985000000000
3086830000000000
3157657000000000
3266585000000000
3138482000000000
3038173000000000
2840229000000000
2819701000000000
2836074000000000
2470090000000000
2.712006E+015
2385324000000000
2705975000000000
2478587000000000
2376333000000000
2172415000000000
2067638000000000
2.074997E+015
2091726000000000
2188449000000000
1.901985E+015
1878577000000000
1686326000000000
1.539122E+015
1.616716E+015
1426018000000000
1239697000000000
1073751000000000
1005172000000000
915575800000000
874929000000000
616323500000000
525112400000000
432937800000000
295024700000000
173811700000000
170130300000000
300741500000000
482158900000000
607452900000000
762538400000000
865516300000000
1.15657E+015
1255846000000000
1415023000000000
1610160000000000
1663524000000000
1796910000000000
2017315000000000
2076546000000000
2179309000000000
2271616000000000
2134350000000000
2306736000000000
2601967000000000
2634950000000000
2618891000000000
2830102000000000
2742573000000000
2889478000000000
2955128000000000
3119176000000000
2973264000000000
3414570000000000
3319194000000000
3257294000000000
3446565000000000
3577310000000000
3364714000000000
3491651000000000
3.56727E+015
3413118000000000
3843803000000000
3916375000000000
3625244000000000
3515882000000000
3906385000000000
3630305000000000
3579665000000000
3589024000000000
3640319000000000
3755297000000000
3465076000000000
3413247000000000
3.7425E+015
3490137000000000
3249536000000000
3158424000000000
3079441000000000
3218698000000000
2921490000000000
2975696000000000
2774981000000000
2787482000000000
2700700000000000
2658729000000000
2614492000000000
2354681000000000
2439213000000000
2103335000000000
2152937000000000
2.070349E+015
1999591000000000
1.981168E+015
1633346000000000
1.493486E+015
1.415091E+015
1191772000000000
1.066269E+015
1124366000000000
931397600000000
710731200000000
522635000000000
524577900000000
340872400000000
207347900000000
240768700000000
338724200000000
586597800000000
694984500000000
845387900000000
1168104000000000
1180987000000000
1414534000000000
1466940000000000
1686884000000000
1816488000000000
2046423000000000
2.018223E+015
2278593000000000
2370908000000000
2301439000000000
2382916000000000
2582351000000000
2.89652E+015
3051535000000000
2945856000000000
3215245000000000
3062905000000000
3097840000000000
3044796000000000
3637219000000000
3197617000000000
3491502000000000
3.510762E+015
3641883000000000
3604643000000000
4.203752E+015
4000654000000000
4011401000000000
3898734000000000
4.040898E+015
3959414000000000
4173470000000000
4.17437E+015
4167909000000000
4.170028E+015
4090858000000000
3924635000000000
4.104328E+015
4.069117E+015
4019094000000000
4023308000000000
3914277000000000
3.965285E+015
3963973000000000
3728423000000000
3722271000000000
3735298000000000
3684996000000000
3368518000000000
3.392218E+015
3436386000000000
3105031000000000
2.981914E+015
3042895000000000
2922321000000000
2933960000000000
2659806000000000
2533629000000000
2324864000000000
2207354000000000
2154291000000000
2096021000000000
1708505000000000
1.919577E+015
1733149000000000
1456365000000000
1272880000000000
1137225000000000
1036440000000000
898717100000000
646596300000000
448544200000000
391731900000000
217510800000000
259275300000000
414184500000000
680284700000000
739086800000000
951710800000000
1135362000000000
1259903000000000
1416874000000000
1868748000000000
1898891000000000
2.051575E+015
2064083000000000
2268385000000000
2537270000000000
2652294000000000
2538245000000000
2704735000000000
2864172000000000
3175203000000000
3180130000000000
3090789000000000
3263997000000000
3362044000000000
3303708000000000
3608199000000000
3982154000000000
3.786662E+015
3845585000000000
3949569000000000
4250679000000000
4.08867E+015
4345417000000000
4361633000000000
4390115000000000
4275282000000000
4107311000000000
4335254000000000
4521773000000000
4196230000000000
4542813000000000
4621869000000000
4561985000000000
4240678000000000
4473164000000000
4638830000000000
4404864000000000
4297560000000000
4444011000000000
4177092000000000
4.111323E+015
4275329000000000
4321050000000000
3984206000000000
3890231000000000
3836559000000000
3576037000000000
3567315000000000
3669439000000000
3372484000000000
3427380000000000
3179667000000000
2983248000000000
2832904000000000
2788249000000000
2677924000000000
2545995000000000
2312713000000000
2197387000000000
2148105000000000
1.946423E+015
1949309000000000
1669006000000000
1464643000000000
1309949000000000
1081316000000000
970987300000000
781359300000000
560780400000000
406067900000000
264483400000000
309829700000000
488524900000000
621116900000000
763452600000000
1.035931E+015
1207839000000000
1367706000000000
1830092000000000
2.067137E+015
2.014165E+015
2175737000000000
2206056000000000
2721117000000000
2723718000000000
2998751000000000
2888060000000000
3098176000000000
3415792000000000
3388305000000000
3463025000000000
3487332000000000
3640756000000000
4026809000000000
3970806000000000
3972304000000000
4.036057E+015
4320855000000000
4467983000000000
4535490000000000
4816354000000000
4853333000000000
4818314000000000
4638451000000000
4780050000000000
4655318000000000
4615602000000000
4593902000000000
4789534000000000
4875399000000000
4821410000000000
4940665000000000
4958680000000000
4799135000000000
4967245000000000
4707549000000000
4512426000000000
4986504000000000
4884472000000000
4531515000000000
4517882000000000
4665114000000000
4388772000000000
4.115148E+015
4334462000000000
4420532000000000
4239502000000000
3925548000000000
3620505000000000
3663956000000000
3698096000000000
3.348876E+015
3206075000000000
3.249007E+015
3169994000000000
3003100000000000
2896120000000000
2.858839E+015
2844844000000000
2290876000000000
2274977000000000
1970607000000000
1976817000000000
1703008000000000
1384507000000000
1139883000000000
1.032355E+015
800825400000000
664934700000000
552542600000000
292217200000000
326808600000000
560541600000000
740126500000000
892610200000000
1272444000000000
1.512558E+015
1478739000000000
1760699000000000
2.035916E+015
2107789000000000
2500384000000000
2790868000000000
2657920000000000
2.980999E+015
3126308000000000
3187306000000000
3082275000000000
3476125000000000
3501319000000000
3804237000000000
3819810000000000
3934377000000000
4247725000000000
4603778000000000
4441213000000000
4595859000000000
4773766000000000
4624115000000000
4764931000000000
5059425000000000
5244668000000000
5118639000000000
5083944000000000
5158080000000000
5204651000000000
5381375000000000
5181217000000000
5282782000000000
5001431000000000
5188722000000000
5473582000000000
5304718000000000
5303360000000000
5123245000000000
5217883000000000
5060715000000000
4968847999999999
5098223000000000
4908571000000000
5088099000000000
4919850000000000
4861677000000000
4518437000000000
4601874000000000
4705846000000000
4571910000000000
4391235000000000
3984471000000000
4044823000000000
4239572000000000
3889722000000000
3815250000000000
3400108000000000
3578729000000000
3282689000000000
3060812000000000
2945418000000000
2845248000000000
2404716000000000
2394104000000000
2220243000000000
2.056579E+015
1714791000000000
1470878000000000
1463064000000000
1098348000000000
869252300000000
720781800000000
553751800000000
348573600000000
303739500000000
639754800000000
773877000000000
1159702000000000
1342349000000000
1564784000000000
1859929000000000
1835909000000000
2.05276E+015
2286347000000000
2559274000000000
2804491000000000
3015240000000000
3141786000000000
3495892000000000
3449579000000000
3409972000000000
3587499000000000
3652642000000000
3.641049E+015
4.161864E+015
4459758000000000
4437979000000000
4601795000000000
4759356000000000
4688690000000000
5094155000000000
4944514000000000
5240455000000000
5250725000000000
5408700000000000
5358988000000000
5391649000000000
5523122000000000
5551290000000000
5545574000000000
5816019000000000
5780049000000000
5642046000000000
5614394000000000
5919643000000000
5584204000000000
5694326000000000
5636709000000000
5511293000000000
5526091000000000
5568221000000000
5594293000000000
5328768000000000
5726585000000000
5699166000000000
5054011000000000
4833602000000000
4833671000000000
4927690000000000
4816790000000000
4680352000000000
4664528000000000
4336240000000000
4355374000000000
4109939000000000
3944518000000000
3709557000000000
3400623000000000
3580209000000000
3217363000000000
2980727000000000
2874453000000000
2761215000000000
2241446000000000
2284845000000000
1995709000000000
1766543000000000
1579122000000000
1354122000000000
1277271000000000
915016900000000
873144800000000
596466200000000
285054900000000
352833300000000
651725000000000
919689600000000
1117644000000000
1412716000000000
1726016000000000
1822699000000000
1886621000000000
2356771000000000
2680745000000000
2774761000000000
2860719000000000
3131242000000000
3788628000000000
3470670000000000
3851789000000000
4139594000000000
3853554000000000
3913490000000000
4095988000000000
4369300000000000
4703419000000000
4963222000000000
4751267000000000
4941183000000000
5171936000000000
5140678000000000
5644897000000000
5707297000000000
5827587000000000
5744744000000000
6081199000000000
5888182000000000
5916584000000000
6241110000000000
5983457000000000
5948792000000000
6013344000000000
6142228000000000
6272973000000000
6173540000000000
6218496000000000
6116589000000000
6190251000000000
6021770000000000
5689025000000000
5836815000000000
5596842000000000
5819229000000000
5582361000000000
5848700000000000
5322978000000000
5262761000000000
5338926000000000
5283051000000000
5234653000000000
5180010000000000
4795281000000000
4403557000000000
4530360000000000
4307610000000000
4.15589E+015
4.131904E+015
3818767000000000
3571209000000000
3413569000000000
3183460000000000
2910151000000000
2757438000000000
2.693007E+015
2360101000000000
2055904000000000
1938784000000000
1700993000000000
1552146000000000
1366068000000000
1020348000000000
727290200000000
571501000000000
370755100000000
375359900000000
664403100000000
956674800000000
1126268000000000
1433675000000000
1739585000000000
2.065574E+015
2189326000000000
2457810000000000
2444760000000000
2982569000000000
2979718000000000
3484808000000000
3679269000000000
3735060000000000
4197306000000000
4324524000000000
4486791000000000
4444596000000000
4599616000000000
4931601000000000
4788775000000000
5197459000000000
5254605000000000
5534687000000000
5569990000000000
5902339000000000
6103283000000000
5914113000000000
6311022000000000
6343758000000000
6222210000000000
6021031000000000
6637359000000000
6472902000000000
6759108000000000
6322915000000000
6395985000000000
6337055000000000
6608570000000000
6440492000000000
6258724000000000
6539114000000000
6751364000000000
6462363000000000
6269215000000000
6334023000000000
6241383000000000
6073103000000000
6335977000000000
6196656000000000
5514573000000000
6115677000000000
5610350000000000
5745332000000000
5585188000000000
5472666000000000
5102150000000000
5063409000000000
4842829000000000
4894723000000000
4468672000000000
4378287000000000
4.226581E+015
3904490000000000
3431801000000000
3290759000000000
3224674000000000
3233938000000000
2838790000000000
2413112000000000
2197683000000000
1842320000000000
1813463000000000
1568917000000000
1433363000000000
1157548000000000
1028278000000000
629754900000000
420377000000000
473753300000000
688784400000000
1013954000000000
1248111000000000
1461779000000000
1845523000000000
2.081227E+015
2214035000000000
2671407000000000
2784019000000000
2970412000000000
3330832000000000
3458685000000000
3794506000000000
3967499000000000
4410429000000000
4787707000000000
4531129000000000
4681877000000000
4657673000000000
5156955000000000
5118438000000000
5448423000000000
5703837000000000
5936569000000000
5797458000000000
6137149000000000
6551191000000000
6448370000000000
6279665000000000
6512653999999999
6742500000000000
6752020000000000
6814168000000000
6674512000000000
6659077000000000
6958502000000000
6657904000000000
6871421000000000
6829099000000000
6576943000000000
6717291000000000
6585846000000000
6697324000000000
6807451000000000
6641355000000000
6554340000000000
6541725000000000
6963973000000000
6786970000000000
6238686000000000
6503196000000000
6477871000000000
6087412000000000
5903102000000000
5579617000000000
5519556000000000
5337269000000000
5449379000000000
5282649000000000
4986243000000000
4995927000000000
4518895000000000
4225093000000000
4064761000000000
3714807000000000
3597575000000000
3352161000000000
3267369000000000
2825379000000000
2678877000000000
2570127000000000
2335697000000000
2.020049E+015
1.725405E+015
1504996000000000
1430353000000000
926492600000000
723407700000000
441969000000000
453786900000000
688608000000000
1054057000000000
1446477000000000
1528880000000000
1.809484E+015
2034990000000000
2.421797E+015
2.845076E+015
2843240000000000
3203617000000000
3591480000000000
3725666000000000
4002218000000000
4148497000000000
4284312000000000
4387509000000000
4764729000000000
4858605000000000
5554895000000000
5340036000000000
5751281000000000
5715978000000000
5773530000000000
6099312000000000
6102170000000000
6688565000000000
6503896000000000
6372740000000000
6675976000000000
7083842000000000
6798271000000000
7167092000000000
7289373000000000
6875094000000000
6925013000000000
7036910000000000
7173614000000000
7067667000000000
7400626000000000
7419256000000000
7259969000000000
7271903000000000
7351684000000000
7605707000000000
7143088000000000
7101016000000000
6988102000000000
7267531000000000
6842094000000000
6693873000000000
6838152000000000
6590043000000000
6581690000000000
6152921000000000
6282791000000000
5842878000000000
5756894000000000
5747026000000000
6023014000000000
5302166000000000
4986277000000000
4545458000000000
4634392000000000
4.233947E+015
4478163000000000
3747734000000000
3591951000000000
3329643000000000
3075894000000000
3032608000000000
2560829000000000
2300573000000000
1875117000000000
1631330000000000
1557464000000000
1414396000000000
950061800000000
662972800000000
405387200000000
546292900000000
708825500000000
1047560000000000
1444999000000000
1869257000000000
2.053472E+015
2.336981E+015
2655172000000000
2887837000000000
2940730000000000
3522748000000000
3725196000000000
3934863000000000
4055204000000000
4168781000000000
4501000000000000
4801998000000000
4925950000000000
5212506000000000
5510275000000000
5637115000000000
5842149000000000
6263006000000000
6175166000000000
6415500000000000
6766078000000000
7000629000000000
7133067000000000
6951369000000000
7070794000000000
7271412000000000
7048880000000000
7397472000000000
7532046000000000
7795878000000000
7422270000000000
7469629000000000
7797991000000000
7631178000000000
7621880000000000
7642535000000000
7826325000000000
7523751000000000
7744387000000000
8041926000000000
7936312000000000
7632806000000000
7655664000000000
7397056000000000
7597945000000000
6924256000000000
7141985000000000
7039440000000000
6543498000000000
6589735000000000
6583952000000000
6506686000000000
5972613000000000
5763339000000000
5615522000000000
5591271000000000
5189433000000000
5202930000000000
5033083000000000
4679805000000000
4345273000000000
3931658000000000
3720999000000000
3658145000000000
3099303000000000
3124941000000000
2925040000000000
2489646000000000
2228791000000000
1861479000000000
1646860000000000
1.520436E+015
1078074000000000
770009500000000
524455400000000
529945100000000
780969900000000
1182451000000000
1447107000000000
1.71018E+015
2.066937E+015
2258407000000000
2813268000000000
2872625000000000
3208645000000000
3687972000000000
3.992011E+015
3901607000000000
4118227000000000
4284707000000000
4959320000000000
5091627000000000
5037416000000000
5386058000000000
5404792000000000
5983077000000000
6441303000000000
6583283000000000
6340083000000000
6722005000000000
7043827000000000
6894074000000000
7010115000000000
7395229000000000
7442171000000000
7755031000000000
7766078000000000
7676290000000000
7714916000000000
8040694999999999
8363469999999999
8140108000000000
8096641999999999
8106242000000000
7999752000000000
8173047000000000
7906317000000000
8133152000000001
8238683000000000
8093798000000000
8064688000000000
7967539000000000
7736003000000000
7709909000000000
7438427000000000
7605282000000000
7032934000000000
7181592000000000
7016446000000000
7257385000000000
7079419000000000
6825728000000000
6209121000000000
5940754000000000
5854313000000000
5913790000000000
5574124000000000
5374783000000000
5052584000000000
4584332000000000
4438443000000000
4.155142E+015
4124262000000000
3813364000000000
3337601000000000
3252018000000000
2861107000000000
2728427000000000
2541232000000000
1886056000000000
1701271000000000
1439708000000000
1116099000000000
880042600000000
613449600000000
524832500000000
840192700000000
1345746000000000
1634251000000000
1957749000000000
2245633000000000
2.507426E+015
3116696000000000
3319597000000000
3409116000000000
3922984000000000
3.998257E+015
4287942000000000
4260865000000000
4641161000000000
5005120000000000
5132181000000000
5397633000000000
5767918000000000
5588199000000000
6139070000000000
6416087000000000
6251304000000000
6719845000000000
7132091000000000
7284222000000000
7134304000000000
7718840000000000
7434397000000000
8027490999999999
7757417000000000
7744502000000000
7831532000000000
7807634000000000
7932591000000000
8045460000000000
8249138000000000
8428250000000000
8403079000000000
8168008000000000
8395599000000001
8679201000000000
8115463000000000
8428376000000000
8557643000000001
8258191999999999
8091250000000001
8308819000000000
7972927000000000
7675169000000000
7892378000000000
7475829000000000
7751936000000000
7675389000000000
7251856000000000
7063105000000000
6781714000000000
6424870000000000
6245740000000000
5970720000000000
6151603000000000
5758798000000000
5489810000000000
5227710000000000
5026528000000000
4940757000000000
4625917000000000
4.237061E+015
4014754000000000
3351399000000000
3280406000000000
3117734000000000
2829140000000000
2466165000000000
2081734000000000
1917831000000000
1563099000000000
1.282542E+015
973668200000000
540189900000000
518983500000000
884033600000000
1249066000000000
1638938000000000
2118388000000000
2.126253E+015
2683921000000000
2.984106E+015
3380551000000000
3.611864E+015
4054887000000000
4.094007E+015
4710048000000000
4560653000000000
5006488000000000
5052038000000000
5063730000000000
5430236000000000
5726250000000000
6110260000000000
6251196000000000
6889070000000000
6927092000000000
7092242000000000
7078860000000000
7317608000000000
7607485000000000
7982464000000000
8447668000000000
8231449000000000
7910947000000000
8031974000000000
8274549000000000
8368741000000000
8200772000000001
8406786000000000
8480278000000000
8621685000000000
8996414000000000
8828028000000000
8938662000000000
9.197749E+015
8547539000000000
8504652999999999
8605777000000000
8383702000000000
8615932000000000
8202520000000000
8209040000000000
8119508000000000
8195608000000000
7905713000000000
7848411000000000
7772310000000000
7145726000000000
7207365000000000
7238780000000000
6596742000000000
6589493000000000
6218219000000000
6323200000000000
6189322000000000
5841321000000000
5638237000000000
5437300000000000
4714558000000000
4785335000000000
4512486000000000
3924532000000000
3602205000000000
3528212000000000
3084874000000000
2922772000000000
2538702000000000
2031921000000000
1.740099E+015
1461670000000000
1235281000000000
861271700000000
599306700000000
634108400000000
1002092000000000
1328278000000000
1787712000000000
2.080846E+015
2411693000000000
3019988000000000
3027099000000000
3582015000000000
3.746939E+015
3934678000000000
4293684000000000
4376001000000000
4773266000000000
4839573000000000
5540287000000000
5712098000000000
5726728000000000
5942302000000000
6464441000000000
6504750000000000
6907451000000000
7163110000000000
7150532000000000
7398126000000000
7721174000000000
7821366000000000
7934018000000000
8455016000000001
8618751000000000
8329946000000000
8288245000000000
8636323000000000
8695567000000000
8703744000000000
8929412000000000
8971548000000000
8982335000000000
9.149399E+015
8984926000000000
9.1672E+015
9.05502E+015
9.335746E+015
9.17098E+015
8749642000000000
8752218000000000
8837423000000000
8671173000000000
8686337000000000
8649754000000000
8676367000000000
8045904999999999
7900370000000000
7948710000000000
7867997000000000
7724167000000000
7115980000000000
6756938000000000
6817453000000000
6739373000000000
6400024000000000
6343553000000000
5944611000000000
5847530000000000
5536670000000000
5260239000000000
4744823000000000
4702541000000000
4329345000000000
3950491000000000
3556402000000000
3356277000000000
2785466000000000
2560355000000000
2257944000000000
1.764731E+015
1561219000000000
1447755000000000
1036923000000000
528929000000000
517243900000000
851585500000000
1424282000000000
1724841000000000
2134903000000000
2801492000000000
2754017000000000
3250688000000000
3438737000000000
3740285000000000
4129748000000000
4616599000000000
4658665000000000
4921938000000000
5409954000000000
5799408000000000
5943157000000000
6183080000000000
6089785000000000
6729307000000000
6765083000000000
6657016000000000
7487015000000000
7972805000000000
7326122000000000
8179940000000000
8286908000000000
8297027000000000
8226936000000000
8774090000000000
8658987000000000
9.110668E+015
9.225549E+015
8993878000000000
9.00767E+015
8817293000000000
9.324055E+015
9.045747E+015
9.139048E+015
9006734000000000
9.182204E+015
9.132442E+015
9.342317E+015
9.353794E+015
8749645000000000
9.154696E+015
9.009775E+015
8689647000000000
8905245000000000
8726712000000000
8767923000000000
8047947000000001
8544587999999999
7688218000000000
7862087000000000
7512656000000000
7571966000000000
7467770000000000
6882693000000000
6951782000000000
7138895000000000
6333831000000000
6071241000000000
5933797000000000
5471082000000000
5551488000000000
5162144000000000
4547952000000000
4185149000000000
4026351000000000
3.565167E+015
3387553000000000
2712969000000000
2727519000000000
2514445000000000
2.117094E+015
1925859000000000
1398653000000000
1.020766E+015