/*--------------------------------*- C++ -*----------------------------------*\
| =========                 |                                                 |
| \\      /  F ield         | OpenFOAM: The Open Source CFD Toolbox           |
|  \\    /   O peration     | Version:  v1806                                 |
|   \\  /    A nd           | Web:      www.OpenFOAM.com                      |
|    \\/     M anipulation  |                                                 |
\*---------------------------------------------------------------------------*/
FoamFile
{
    version     2.0;
    format      ascii;
    class       volScalarField;
    object      dnp8_s;
}
// * * * * * * * * * * * * * * * * * * * * * * * * * * * * * * * * * * * * * //

dimensions      [0 -3 -1 0 0 0 0];

internalField   nonuniform List<scalar> 
6400
(
25310152521229.7
41094605808086.4
55595634300688.5
70371799104584.6
89349668682463.8
104097930214954
114870729714589
131983730653515
144932356870743
161121281902572
170036502807135
191953139901855
198404828736357
208976649267623
227318651052521
237108677222778
257591186719571
258704803767568
278405518903351
282244104077824
303069748398660
307930196620561
308117475334050
317131991663886
332740226993486
332031333071285
345833397184213
348415078241307
359522339926577
367288750467856
393727728576903
375825643233087
384293406271863
390154350171197
398256354111816
385830600007416
404985818756258
394381318717939
396800859143892
389162652822586
411120767753180
393213654792895
406583343889445
389111119753773
387467089168243
384714469151185
391032926149244
387635514319971
370835733887097
382176779738199
364600232560784
378109438014363
354695828115845
349095063368809
338706750838679
332791760062298
321989926077552
318001769313111
301354074278439
292621104470897
280322297682353
271007381268464
259626114485606
247681754658162
239440234360515
221394861947318
217967284419228
193685153775602
193223869964525
174215708997417
161287193246066
146835309704454
128407838439574
117641449150938
101068162840014
94614085887689.9
73047747970482.5
57615227836491.5
44626380687507
25473172985253.6
38412372421601.7
60167623027651.1
88671317530314.8
116095708467386
136395464105512
162057675470019
178402456612403
203941491373407
234993307593231
243145587698545
265329945370267
288316207868877
319011063319366
323367492990198
350050310498016
379256991473529
392855437119442
413878415386707
421805709655011
442826174114041
452668990257228
479471213656197
479848284891411
492245130201110
517699952386250
523470399189133
538831024407609
541362429300009
573405942868444
565943703123571
580920972586248
572864217193854
610673149948703
587694428874798
600565127036749
601877334935292
611635938502614
610654296386942
624078032360540
618230914406497
626797972870546
629094336692995
623047370984290
610524835262852
599087007794712
595293671168465
606179717729076
584811090829533
587757274080667
581049176806220
575129158413370
568137000808396
560268781033609
540799336255423
523705440259082
508785988385805
496196836746147
481147923748779
475822421003449
451148136275201
432605029831523
416008867865663
397517294490797
373642400781202
369625335222062
352730030076266
327914972086872
306381690747951
284085468609782
275527208474555
248801656226746
223310383822203
196083326831560
177452237099665
159821643045203
133528465813772
111555770795417
85977772006773.7
71757912965229.1
37270223650140.3
52290856304866.5
84776297360972.1
114282498587657
154927258412133
174982420509017
206934180076884
236079272750646
268522481828408
304076528596680
320000246859742
346001822335942
374871653007997
413989022949037
428362978435372
473867935100926
501007008803352
516708255037639
538695278762933
564885389856739
594061905133435
599863774539252
639413519496669
634126980778977
654751520441033
684755078626964
697756494817122
718382291383296
754259362509734
751986879865515
750188250073547
764423946106970
788305124337153
791189719286535
796740207868877
804368358957244
815336104285485
821629423201197
825823712240887
801556664446670
812347186294360
807428920483060
820380060508523
819785544861003
821199561993053
802152436998307
789867456155054
792251803265720
779814737024264
767186621356968
768471177364928
765059939590364
747264691096526
739729550912844
717572845131704
695433736008208
680058027940322
648849098705826
649842052958554
633578970583800
605754884137403
568590743194769
562273543100827
537342849932634
496842885462479
482602161812586
467604781884031
434171132361776
408180869022633
374333698045760
363316933456941
335864890629288
308583786761598
262465460886763
251839593478449
210567889880224
178577166284718
155000158850941
116223409925712
89082827938344.4
52752894258414.6
63456564031594.2
102655129978616
149834282928518
191010461813822
227763595110073
262569783928505
299654739911744
333094673954587
384368820518906
413221054533319
438235960277376
478520994143459
500847381980445
554492049710140
580443349021644
614509221314941
644331785307969
669511345491403
713388611324953
728309320102348
772587538349341
791486348658237
799280411090098
833169059902844
853045741615061
886618907494345
872479993077960
902850567266165
928228718300145
930626891356102
968927273620845
973604213841609
971207297689769
998881812546199
997156083193038
1.00817159087774E+015
1.01987211130641E+015
1.02313252058689E+015
1010351062617273
1.00976157458622E+015
1.01846689250318E+015
1.02711313592663E+015
1.01978161420996E+015
994966556220566
997623651524703
978954854669287
969020284525531
976818117669744
964925290911114
952352479024981
942034553125425
930080138065043
912864322369316
888010300352283
868574791985266
847761716705603
829169591001347
800603931125697
774063143783143
757073570828544
719348850649559
692833201389353
657974222597990
630060895959259
612062028998406
572754866535643
542228436236882
521522197807197
476834228817938
447050628852548
416127016852697
379948288738087
338221585849372
303299761852140
267955618071470
222125123239515
189752300792326
147692518312505
103817389215955
64626113312814.4
74607817360972.1
136440712653737
172405767068392
223319182151024
265981021703069
318268232985995
359876786887678
404478029492837
447362341073658
493655376620808
538849877969370
564838884404396
600927115422554
659691153622329
708661394939494
742264726517596
778562860523356
814079200168107
833273382944587
873108445136649
896956943859779
932615313669794
962331040812846
991952500147093
1.02823303749521E+015
1.05397192001088E+015
1.06920936862585E+015
1.08849279159467E+015
1.1037490937714E+015
1134511822044227
1135875563011582
1.14170508430798E+015
1.16948643601439E+015
1.15728441084288E+015
1.18262736856158E+015
1.18764367289403E+015
1.19794400213594E+015
1.2304588547484E+015
1224977495892511
1236223017030692
1.22144810913091E+015
1.22874569443641E+015
1.22606597485816E+015
1.20391429669349E+015
1168335111842870
1.18423746273594E+015
1.18325330681203E+015
1.15710593045821E+015
1.17036878270479E+015
1.13795322551761E+015
1.13261766753934E+015
1.08762929846603E+015
1084179096663824
1.0966827788235E+015
1.05833212039406E+015
1.02697739028195E+015
1.00256202780188E+015
963039934735047
928561797891250
908392257519685
874137849608781
817299388516829
786521577394594
752238260688990
723347062646939
689493607149479
656766337741190
633512354665579
569716929283940
537804133743712
489041281605913
442193951343000
411448819727816
352497502814551
304144401419018
265861615811918
222703299133509
178882593985241
121877467407325
74391629852783.1
89975732623329.8
153102233633701
208967850938802
267436516670993
307245183876590
363354640580463
415545070246351
474095434746171
521546078985427
571047990744243
617260584427881
658656721533727
708660138035377
771790661138923
820939382840756
841450801132248
902034836493987
929965759790361
959117136984710
1.02228662411589E+015
1.06407114459401E+015
1.09006392174139E+015
1.11157332190208E+015
1.15379021739657E+015
1182073073845812
1.22031563852116E+015
1.23735800144868E+015
1.2636788305707E+015
1.28777368250083E+015
1.3141560999246E+015
1.30596108507929E+015
1331463669620895
1362282958579004
1.37480172358809E+015
1.38799921682056E+015
1.39802931167724E+015
1.41042238627458E+015
1.43227994887579E+015
1.45237784571266E+015
1.41123937395088E+015
1423783277042311
1.42512816444791E+015
1.40398703719361E+015
1406676812004796
1.3957920223483E+015
1396847821806900
1.37537989948208E+015
1359945116920681
1351159357140209
1329113258921398
1.31377902868939E+015
1.28657962358933E+015
1.25221460811609E+015
1.24420435817604E+015
1.21752405447646E+015
1.1918580723996E+015
1.16553975708582E+015
1119060699729299
1.08141390760559E+015
1.06142913213928E+015
1.02715587066662E+015
969578349953647
936956660491218
877058894777568
843826349914093
809101859863290
774720504636531
715600762571538
665583520124597
625561179219046
572062312366967
517427204192779
467206343278822
411105684903771
356400190099010
314236084577447
261287741728780
208622202306523
141899447235510
89048514455940
100077596705109
167223551392443
237352516621550
301516214909581
348490492488350
409485535496471
469260124606618
533965548569239
587180355090790
654844531345719
701068437166413
754339804373246
813297405807098
866983551372665
909068471934834
970934549496298
1.00093559387399E+015
1.06403469437461E+015
1.12470042850397E+015
1166873332354359
1.19562375713526E+015
1.24558946651339E+015
1.26387993522948E+015
1.28955848634751E+015
1.33307250689114E+015
1.38564880612106E+015
1.43894154069789E+015
1.45453972079455E+015
1437923448362814
1.48926798155771E+015
1.5125207077292E+015
1.52938836098441E+015
1.54218364489932E+015
1.55134647591501E+015
1.57884753800324E+015
1.58889020190109E+015
1.62669787775182E+015
1.62285175115264E+015
1.60055427211036E+015
1613487815478177
1.61737164920088E+015
1.62446058842289E+015
1.61464416726617E+015
1615737673848284
1.58785954052484E+015
1.57917433307376E+015
1.58023013253235E+015
1.56776164368796E+015
1.53765879007676E+015
1516756474604764
1.48016799574789E+015
1459718165758149
1474788446125512
1.40208911197637E+015
1.36754938683082E+015
1.37702644387585E+015
1339822082001459
1.27852286819693E+015
1.21972866429834E+015
1.2140336317425E+015
1.17564400928542E+015
1.12379042992299E+015
1.05769612691067E+015
1.00660925905984E+015
964137212029518
910523966902758
898585891595901
833802539578003
760600443781906
722472257381244
647181186942065
592498316411417
533867510048084
474182161130270
402319925123299
354533687484704
286225976321677
241617192291813
173487961513455
107223347993226
112734872547929
193452626513887
270455600360935
337800522970050
396114589495804
470509487299292
537547725303766
588987783211580
670509327360601
734235623015785
786620872819866
849823039458103
926363472589956
961813196316486
1.02192212192186E+015
1093302963651871
1148771399255881
1203285844634801
1242356709123497
1.30234120122125E+015
1333990046896825
1.37708928908172E+015
1.43235536312283E+015
1463891087427844
1.50328246246647E+015
1.5377342043238E+015
1.59992582005167E+015
1589581499165647
1662419092767704
1.69584017324879E+015
1.68593576880385E+015
1.70385922151766E+015
1.72022411312592E+015
1.74025916475693E+015
1.77276270523232E+015
1.76563605888679E+015
1797146645109455
1.8131847416472E+015
1.82199563951002E+015
1.82056276881621E+015
1824836242815293
1808936405730461
1799321089232519
1.83381053821337E+015
1785784231888358
1.74891923412566E+015
1.7696581520624E+015
1742798111074029
1.73001539620029E+015
1.67942500547583E+015
1.67275084461255E+015
1.66362572072039E+015
1.60070510060444E+015
1.57168318453418E+015
1.53723144267685E+015
1.51554984665208E+015
1.4807838787654E+015
1462458216734033
1406752226251839
1337132307190270
1294271876787679
1.23607093163249E+015
1.18311504735912E+015
1.11603533151877E+015
1.08832310953882E+015
1.03211184360144E+015
980165253334322
932815161424457
877184585189306
801266319595555
732570225060259
662316826323531
606794343842474
525781845860991
466125405737877
393252618820534
323523349100753
271241165434296
197169291988974
115817304205387
122201748669609
209304701242259
304046362897863
375540325998443
454759221804428
508973267099294
595171751469080
671171715830460
731997076782735
806867084342592
888626183369798
927308664486224
1.01640305594245E+015
1.09853042787605E+015
1.16614684177451E+015
1.17954166895341E+015
1.2564101540599E+015
1.35530714072756E+015
1.38739590284422E+015
1.4359626779397E+015
1.49371742213322E+015
1531814185930953
1.55936552418388E+015
1.63684109397906E+015
1659515644256561
1.70307994096488E+015
1.76153855146414E+015
1.77550275620821E+015
1.80519083146067E+015
1.84193013881163E+015
1883030903449896
1898126321899606
1.94837734851238E+015
1952298889358599
1.95236173456447E+015
1.97287440976008E+015
1.99597630743749E+015
2.01831149360329E+015
2.03267790766492E+015
2.02376645747271E+015
2.0143773837159E+015
2.01608677331553E+015
1.9875801879334E+015
1.98078033665839E+015
1.97607951525939E+015
1.94020747174942E+015
1.93162281662773E+015
1.90444854961002E+015
1.90845807374445E+015
1.88452661934958E+015
1.8438657711524E+015
1.80630947612514E+015
1.76816243616272E+015
1.75049036427238E+015
1.7096409804576E+015
1.67808011807023E+015
1650629332146698
1.6055693195387E+015
1533523575530587
1.49660830160319E+015
1.41660635453208E+015
1.39527669166018E+015
1.33737111897257E+015
1268241392516780
1179134432019382
1.12755611465866E+015
1.08964411576618E+015
1.01387165105005E+015
957811213606754
878210218949086
823314931622600
756736720525086
669833112945452
586189914646296
515739181963140
443638134173867
363902650775639
296424496330083
206799691336325
129904811243372
137423611673527
221779474607236
323172672852004
408481269106686
495973107813253
567084972062150
651951138067515
722380503380675
808328863831102
891059549741042
980446799856615
1.04186164883994E+015
1.09466293390687E+015
1194884697514246
1.26511170126451E+015
1332154966885453
1.39911024921818E+015
1.4633380496162E+015
1524938920408895
1583296978578757
1653633332987232
1.68136063781659E+015
1.73599825979901E+015
1.80006266266177E+015
1.84905678515717E+015
1.90854605703267E+015
1.93721603995006E+015
1.97659484594752E+015
2.01554630454506E+015
2.04168991018652E+015
2.07846692466101E+015
2.10329078097922E+015
2132526370749435
2.1383458368129E+015
2.17620378882832E+015
2.16344621203693E+015
2.19578635497707E+015
2193347960989358
2.18876026096093E+015
2.20777722025686E+015
2.22914459025228E+015
2.20674655888061E+015
2.20390595557533E+015
2.18025102008628E+015
2175311386904983
2.14451723602922E+015
2.12865510606791E+015
2103278211938048
2.09129991569944E+015
2.062265430588E+015
2.03872361646951E+015
2.00391994145931E+015
1.96905342124325E+015
1.93458911034474E+015
1.87281227297561E+015
1.86861421322357E+015
1.80013807690881E+015
1.72365546136636E+015
1.69489749516075E+015
1.63269331039171E+015
1.56392808612996E+015
1.48680444948765E+015
1420867259489994
1.36431914324916E+015
1312936902930743
1.26478490619399E+015
1189537827398920
1.12398147934883E+015
1.02091785553207E+015
969568294720708
896234223992287
813825305536397
708085732853735
639175964618485
557423150111865
486332653232964
399537139407424
315158652199602
233755257037614
135309498948097
155447616716728
243712451455483
350385903897356
439736703793525
517782908057997
617347310811980
709003272859421
785431841524827
888858710631513
972108497941929
1.08707626065438E+015
1.13495048158119E+015
1.18333877629201E+015
1.2806470361553E+015
1.36703405614269E+015
1432883262852128
1.5117539962176E+015
1.57864643334446E+015
1.65315570942263E+015
1.74076192640388E+015
1.79489678673935E+015
1859451382207884
1.8935763289947E+015
1908030726344545
1.98972949397412E+015
2.05535245794242E+015
2116513412294039
2.13280288965526E+015
2.20116590459945E+015
2.21264143919111E+015
2240079656073473
2.25672106658756E+015
2286308589510637
2.32621529523739E+015
2.36227587436497E+015
2.36981729906923E+015
2374015358821276
2411986432207266
2.39177541399983E+015
2.44680267625864E+015
2427358369562800
2.40287387735628E+015
2.41765506977664E+015
2382185235584233
2366122000964142
2.31452608694577E+015
2.32724595661364E+015
2308103306905972
2.27314880340169E+015
2253603944376461
2.22919486641698E+015
2174343570734602
2.13003770059703E+015
2.08530448305954E+015
2.05481198917195E+015
2.01778359387399E+015
1.91415184939618E+015
1.8948709402356E+015
1.83311924094881E+015
1775113115931818
1.720664029567E+015
1.61925700537694E+015
1571871720151791
1.49389338870966E+015
1.43004265954685E+015
1387810681202952
1292373951570438
1199870836147885
1.1392905714985E+015
1.04415926956651E+015
972522019396546
880199898166896
785416758675418
703261734851238
618474753805268
530711423809347
425250883840744
346952041848679
249061835379044
145978101096402
177990192061903
269433737313507
370252530376633
477123316764935
573042697578522
662716521832858
765802769923734
850699101627916
935332740371565
1.0394647326881E+015
1.13959097158255E+015
1226988542480316
1278372039702847
1.37512851865861E+015
1.46506000825701E+015
1.56341275544184E+015
1.65609686505729E+015
1.7198973180554E+015
1.79288574015154E+015
1861801792907381
1.91959424422442E+015
2012529734663354
2024017838296190
2.10051302287982E+015
2.17313694278192E+015
2.22035883047181E+015
2.28079078043535E+015
2.31370909926948E+015
2328641120183929
2.39945509815701E+015
2.44315765431824E+015
2477621965216747
2526829761412097
2530261109652539
2533353093781289
2552872814724170
2.60968488082966E+015
2.60625353258921E+015
2.57051974853216E+015
2.59711583965588E+015
2599265145696593
2.62224135296226E+015
2.59266639908036E+015
2.56793052605036E+015
2.53092726883475E+015
2532309863363865
2.50723462622217E+015
2.46671203747791E+015
2.46049036209688E+015
2423851607075315
2401880923103547
2.35601649186042E+015
2.3013285937133E+015
2.28149464674108E+015
2.23390825685715E+015
2.16266693148416E+015
2.12028412464617E+015
2.04025703949271E+015
1970486291937059
1.92995113415162E+015
1.87487359572811E+015
1.78440163735924E+015
1714417216103633
1.63347259094449E+015
1.55693969923734E+015
1472086102273149
1.40036715333556E+015
1.29898526722785E+015
1.20919203708236E+015
1132127474933561
1.0399926324174E+015
965201809816937
851327553686605
757567534146673
662215017090024
565815498903598
477416175424284
373401075190665
266531545706481
160314349459216
184469532786987
292979322144349
405005929222136
505359667761833
612835025030593
719358905882499
818529897647742
945405569968233
1.0098973202309E+015
1.11776985920075E+015
1.22219722398487E+015
1.31770056953561E+015
1409856779421763
1.49907183367326E+015
1.5692322215053E+015
1.68100870466372E+015
1.74935915056674E+015
1823340526915613
1.90261346959865E+015
1.97806542376485E+015
2.05663450014215E+015
2174129897034648
2.20601755449253E+015
2.27216841819013E+015
2367039540969828
2.40443243846182E+015
2.45820279660326E+015
2493647492713317
2541233882597249
2589008808098787
2.63087628424865E+015
2.64052930787011E+015
2673183676839595
2754442528028084
2.73242156789162E+015
2776199538299898
2777280475840843
2770744574430477
2788768579473678
2.78328847752191E+015
2814585390044623
2.77809746351714E+015
2.80058347817703E+015
2778185446805355
2.77988226736382E+015
2744236466594975
2.71376911078973E+015
2.69802010219898E+015
2.66341753184757E+015
2.63292503795998E+015
2598712107884946
2.54583415166685E+015
2510791664874353
2438884180319156
2393824167711154
2.34149924930471E+015
2.28022517358253E+015
2.20596727832783E+015
2.13232526609065E+015
2.0633212300466E+015
1.99670531182556E+015
1.9576658699398E+015
1.84238262429389E+015
1.7806812011718E+015
1678633155881881
1.59318881398252E+015
1.49755097969123E+015
1.38063375869272E+015
1.32182321504061E+015
1212550484883994
1.11327642698113E+015
1.02483059804947E+015
917377865054820
797314613050519
714370253440625
595846708980112
506101241191086
399695509326214
292260372989209
167135568104226
195188411099986
322754123780917
434281739924105
539576368549215
665229073163496
777040749637211
872398294310330
984060399194077
1065134485477312
1.20332355175832E+015
1.31498565664207E+015
1409052360786641
1522990719026959
1.61821377495952E+015
1.68472914085116E+015
1.77262444577941E+015
1.90860890223854E+015
1.96056931845095E+015
2.08071678303111E+015
2.1380567488659E+015
2.24911679667742E+015
2280715366188305
2.35733624118367E+015
2421501196375818
2.5136951133855E+015
2.60939579288266E+015
2.62812366423159E+015
2692803950111866
2.69648667917578E+015
2775281998294212
2790415123867444
2845643490785034
2.89793070206796E+015
2931753991866603
2910839107353432
2969046337029209
2.98675611604307E+015
2986492166178416
3012057595925885
3.00067004462244E+015
3.02340744010581E+015
3.01036077536742E+015
2992965222382913
2968744680041039
2931942527484210
2900972410032015
2892387754910323
2868242626815491
2.85504513358302E+015
2.81134257742179E+015
2.7718380810126E+015
2.74619723701808E+015
2.66006159785417E+015
2.6195390091099E+015
2.56438605643935E+015
2.50240811441144E+015
2431908362467708
2.38808011589474E+015
2.28643427992238E+015
2.20882045067428E+015
2150148166475075
2.07301196079159E+015
1979799951446831
1.89567535887072E+015
1784250808865157
1.68420124112187E+015
1597072647705220
1.51110040607656E+015
1.41963549345496E+015
1313087731424828
1.17820055226017E+015
1.09602416106599E+015
988390433878444
864357878671463
743373315949123
654286465917603
524152898124869
420268515919457
304060188843154
182510019267994
192220860478857
334870679472442
455123723998467
590141621191333
706456785117613
828438072805034
949061904045686
1.05378966891386E+015
1.14892599846232E+015
1.28091098601995E+015
1.36596568764292E+015
1.49826741503813E+015
1623932688693589
1.72155643149034E+015
1.80739041366609E+015
1.90324192165733E+015
2.01312047959852E+015
2.08837132910594E+015
2.17221940277623E+015
2.27610252807753E+015
2381506507360849
2430664027391504
2504104934969902
2.57801089707173E+015
2685174542119381
2716383471353877
2.79514108334878E+015
2.8800323874365E+015
2906226269242655
2.9536618306325E+015
3.02902580151049E+015
3.04092868350206E+015
3.0910037435384E+015
3123469576890274
3158310959023993
3.14389426879767E+015
3187885912905898
3173406377473703
3225869555333062
3207078838778260
3.19921061900347E+015
3194183002533962
3.20805922398982E+015
3.14497520633861E+015
3148557383073139
3.1084998488523E+015
3079226551958567
3.0500663764354E+015
3034191677432912
3.00219089860447E+015
2.96488598440069E+015
2904504310601847
2849703291084165
2803122424494135
2747215329353161
2.65396561288488E+015
2561897386286944
2510226058021533
2.42897977587422E+015
2.35663237487794E+015
2280061776047268
2.1851780842264E+015
2093310962287240
1991941645220702
1.89209318213619E+015
1.79356446837493E+015
1.7052292470056E+015
1.60981765545543E+015
1.51436835678175E+015
1.36915822410106E+015
1287899372912572
1169392168205585
1.03563368893833E+015
933770408553665
816350425908209
706020639388883
568754140730028
455634027070123
329513754124177
196253008887406
204900509214966
355506531271554
482018958302122
610720912305163
732527490320268
876847734885848
1.00714972783031E+015
1.13074488040445E+015
1.22228772108132E+015
1.33801214007243E+015
1467611523615283
1589556361083300
1.69537511872536E+015
1.81326015589424E+015
1.91753292147192E+015
2.04436711595654E+015
2128190051544481
2.21159820877369E+015
2319214339303594
2397004135128120
2519879081642996
2.57959459625963E+015
2674113785886455
2.7740879393827E+015
2853800798506818
2903184561278600
3.01426974717247E+015
2975582238439575
3067788724490427
3.12654899197785E+015
3.15700377874192E+015
3235283767172223
3.24762656560488E+015
3330004061457832
3317623555901658
3356336202716902
3.39586583720844E+015
3.35186162405904E+015
3400189587372221
3384591407275559
3.36564986222667E+015
3.40078033230739E+015
3.38591115659881E+015
3.36208025453332E+015
3.36686905922053E+015
3333925602304052
3.28919238476657E+015
3.22526624135672E+015
3.2275789449327E+015
3.19340372198119E+015
3116569173285869
3104414910470823
3.02411130641154E+015
2.9379882362888E+015
2877669407695826
2.81809215253211E+015
2702632940309762
2.68538821581934E+015
2584056605876319
2.48565358252679E+015
2.41208698453666E+015
2341423835057664
2261648130727680
2.10182020316189E+015
2.03363315479413E+015
1.90937561375014E+015
1.80529138379006E+015
1694910064201926
1578784692797370
1478131811077737
1.3414811954364E+015
1.22834097131061E+015
1.12598372760782E+015
989741605804626
859504971874266
758639673358797
603682249247846
484219797411651
346317305269403
202189367033782
205683560480093
373573271054746
515961653991916
653707033119492
770587803898592
902243482577471
1.060012601199E+015
1191924688317821
1.31157944648397E+015
1.43430356450477E+015
1568943133558300
1700666685059518
1.78881337081124E+015
1.91744493818371E+015
2042532035945168
2.15267454375101E+015
2.25894578687532E+015
2.34304524136908E+015
2.47685525370515E+015
2.5500322114189E+015
2.64314366843426E+015
2735136480785158
2.82677735998319E+015
2.92134682577471E+015
3.00264338408672E+015
3.05880186005117E+015
3.1618051524703E+015
3.18411520055376E+015
3.25893870266128E+015
3.33088389434E+015
3.35628592655221E+015
3416881274051001
3428306532477967
3470940720139430
3511161651895527
3.54005787755405E+015
3.56709388511885E+015
3.54450731812957E+015
3.58876291210245E+015
3594934311318773
3.58856180744367E+015
3562707289749200
3572134070629535
3.56416529852536E+015
3.51988456647013E+015
3513625183965588
3484942632007021
3.40277880985402E+015
3.39057427087428E+015
3.35329449475285E+015
3.31880504577199E+015
3.26724683887715E+015
3.20858712371911E+015
3128786281306783
3.02530536532305E+015
2.96404385864204E+015
2.85740811332369E+015
2.80723250095796E+015
2728462319921881
2649025979703589
2552847676641822
2443924365829842
2372532211962770
2.21848604333692E+015
2.10198360069715E+015
2.02097613033213E+015
1.90408404741598E+015
1796807280997763
1676659816417597
1.53158794318982E+015
1.42965301927047E+015
1.31193137963684E+015
1.17763620231147E+015
1.05837485513405E+015
917688320371813
780876821003449
649290272051026
502071606590772
367753804991286
216746830521254
231306807816961
400303850919025
536334812830497
692162014590673
830846301093930
970551193740498
1.10821110338809E+015
1.26375424481774E+015
1.37794398388153E+015
1.50745538413617E+015
1635923553973375
1.76708149862177E+015
1886047473331603
2037542126599177
2.16288060518411E+015
2.26093169538077E+015
2.39676532334582E+015
2459748788667632
2611532529882202
2718746451094548
2.78125229285176E+015
2.87746830303705E+015
2.95077095116253E+015
3070289963684009
3150606136784465
3198619874068306
3.31620325424902E+015
3363575970432999
3.392145401021E+015
3.51049549271332E+015
3.52767737199787E+015
3556322216832921
3648654393295510
3.64781226753687E+015
3667294281356226
3714742411787247
3.7435255160752E+015
3765910978405706
3754875360255127
3766061806899792
3.75407094162001E+015
3786222548942535
3775827951891819
3715861056451713
3720071685244929
3704888283507003
3.66566030600363E+015
3616050300490724
3611525445668163
3.53402473779063E+015
3469759230269095
3.41559923185128E+015
3.34408138757247E+015
3.26409200954253E+015
3.19966310448573E+015
3130194013918247
3.05510656194608E+015
2949400925674591
2.88289812882412E+015
2755523465569029
2657145580301851
2582963099294199
2442390942806641
2.34971940223236E+015
2.23168353656939E+015
2141123594912301
1.99952077704849E+015
1.88282979879112E+015
1.75825803171778E+015
1.61464416726617E+015
1.53138683853104E+015
1.3837131737803E+015
1227398293222581
1.10378177327845E+015
973249766880508
831048662656828
682209847789274
526553584989061
382511116233421
228625831334594
248090248496310
405880734487831
566803425539858
722008459761931
882828084676333
1.03330841632118E+015
1.16695754493022E+015
1.30445280013844E+015
1.42942677652934E+015
1.57909891882671E+015
1744520069714837
1.83888843084758E+015
1.99670531182556E+015
2.12868024415026E+015
2244843322678336
2358178366942313
2.50264692619374E+015
2597027856367660
2.71345488476039E+015
2.83594019099888E+015
2927958141432121
3037183109232272
3144497582774008
3199700811609251
3.27678674112805E+015
3385182152210727
3.45915095951842E+015
3566829935254200
3.58300629124486E+015
3675979488807308
3.72933506859001E+015
3.77757504861497E+015
3820221805317611
3827562125363099
3862001298179257
3.87578953634689E+015
3955062479029926
3965193126215993
3.97288537941435E+015
3.97319960544369E+015
4002271797678645
3960215785911176
3966776825403889
3.89929364334186E+015
3.90291352719991E+015
3878177654169912
3.84243130107168E+015
3790722265682749
3.79474435885836E+015
3.70113014019604E+015
3658596504863970
3.56151323083769E+015
3.53996989426583E+015
3.47056364890422E+015
3386439056328105
3314456157525865
3203986854649511
3.08026978237599E+015
2.9841040483554E+015
2.89297849984549E+015
2.84789334915514E+015
2680360599349823
2574705239243026
2472430951211976
2347746062768075
2227611167229083
2117720040246722
1.9512933660647E+015
1.86038149125474E+015
1.741566345039E+015
1.6057578551563E+015
1.44097772536804E+015
1.29183348279997E+015
1.1491560119158E+015
1.01267633523442E+015
857488897669992
708080705237265
557552611235955
401201280458833
243659661482553
259104499276894
428866996986440
593498812088850
762728382452627
905212290102718
1.06751254806739E+015
1200975654867060
1.34217249270096E+015
1.49804117229701E+015
1686011183050890
1.81799868441676E+015
1.91939313956564E+015
2088760969382332
2240997196079159
2.37644118376782E+015
2.49191296503134E+015
2618533485815998
2.74309268384816E+015
2850319174101681
2955471772561526
3.1005436457893E+015
3.16666937140456E+015
3270426806294113
3.35765595204015E+015
3475314746467906
3.54918300144621E+015
3.63569571184534E+015
3.71417680493443E+015
3763623412912079
3895900002224942
3.88413537968628E+015
3.95075129790732E+015
3986082872646816
3981608293988950
4038106134065092
4.06115775557781E+015
4116574658113003
4.11721567921287E+015
4.14924159612366E+015
4155588961916417
4139789677160975
4.15886948166277E+015
4.13505114863846E+015
4105526470921250
4083606063114177
4017882546816480
4.04558471356349E+015
3992606205016008
3.9473576567904E+015
3.87386647304731E+015
3.79571217502874E+015
3.7615997972831E+015
3691653083151012