/*--------------------------------*- C++ -*----------------------------------*\
  =========                 |
  \\      /  F ield         | OpenFOAM: The Open Source CFD Toolbox
   \\    /   O peration     | Website:  https://openfoam.org
    \\  /    A nd           | Version:  6
     \\/     M anipulation  |
\*---------------------------------------------------------------------------*/
FoamFile
{
    version     2.0;
    format      ascii;
    class       volVectorField;
    location    "0";
    object      U;
}
// * * * * * * * * * * * * * * * * * * * * * * * * * * * * * * * * * * * * * //

dimensions      [0 1 -1 0 0 0 0];

internalField   nonuniform List<vector> 
6400
(
(1.73081e-06 -1.16006e-06 0)
(9.05834e-06 -1.74668e-06 0)
(1.68528e-05 -1.54892e-06 0)
(2.15722e-05 -9.41428e-07 0)
(2.10054e-05 -2.12218e-07 0)
(1.43747e-05 5.44757e-07 0)
(1.51276e-06 1.27846e-06 0)
(-1.74312e-05 1.96354e-06 0)
(-4.21252e-05 2.58905e-06 0)
(-7.21355e-05 3.15109e-06 0)
(-0.000106974 3.6492e-06 0)
(-0.00014613 4.08472e-06 0)
(-0.000189083 4.45996e-06 0)
(-0.000235319 4.77768e-06 0)
(-0.000284336 5.04088e-06 0)
(-0.000335646 5.25261e-06 0)
(-0.000388784 5.41585e-06 0)
(-0.000443301 5.53352e-06 0)
(-0.000498772 5.60835e-06 0)
(-0.000554791 5.64291e-06 0)
(-0.000610974 5.6396e-06 0)
(-0.000666953 5.60062e-06 0)
(-0.000722383 5.528e-06 0)
(-0.000776933 5.42357e-06 0)
(-0.000830291 5.28901e-06 0)
(-0.000882157 5.12585e-06 0)
(-0.00093225 4.93548e-06 0)
(-0.000980297 4.71919e-06 0)
(-0.00102604 4.47816e-06 0)
(-0.00106924 4.21353e-06 0)
(-0.00110966 3.92637e-06 0)
(-0.00114708 3.61776e-06 0)
(-0.00118129 3.28876e-06 0)
(-0.00121209 2.94047e-06 0)
(-0.00123931 2.57406e-06 0)
(-0.00126275 2.19074e-06 0)
(-0.00128228 1.79185e-06 0)
(-0.00129775 1.37879e-06 0)
(-0.00130903 9.53125e-07 0)
(-0.00131601 5.16526e-07 0)
(-0.00131861 7.0475e-08 0)
(-0.00131675 -3.82196e-07 0)
(-0.00131038 -8.3844e-07 0)
(-0.0012995 -1.29621e-06 0)
(-0.00128411 -1.7529e-06 0)
(-0.00126424 -2.2057e-06 0)
(-0.00123994 -2.65154e-06 0)
(-0.00121133 -3.08724e-06 0)
(-0.00117851 -3.50941e-06 0)
(-0.00114165 -3.91454e-06 0)
(-0.00110094 -4.29904e-06 0)
(-0.0010566 -4.65924e-06 0)
(-0.00100889 -4.99143e-06 0)
(-0.000958118 -5.29193e-06 0)
(-0.000904598 -5.5571e-06 0)
(-0.000848699 -5.78338e-06 0)
(-0.000790815 -5.96736e-06 0)
(-0.000731371 -6.1058e-06 0)
(-0.000670821 -6.19571e-06 0)
(-0.000609642 -6.23432e-06 0)
(-0.000548339 -6.2192e-06 0)
(-0.000487431 -6.14824e-06 0)
(-0.000427456 -6.0197e-06 0)
(-0.000368961 -5.83224e-06 0)
(-0.000312504 -5.58493e-06 0)
(-0.000258641 -5.27731e-06 0)
(-0.000207925 -4.90936e-06 0)
(-0.0001609 -4.48159e-06 0)
(-0.000118094 -3.99509e-06 0)
(-8.00082e-05 -3.45169e-06 0)
(-4.71073e-05 -2.85412e-06 0)
(-1.98062e-05 -2.20655e-06 0)
(1.55163e-06 -1.51538e-06 0)
(1.67242e-05 -7.91049e-07 0)
(2.56209e-05 -5.16485e-08 0)
(2.83831e-05 6.69477e-07 0)
(2.55147e-05 1.31283e-06 0)
(1.81645e-05 1.77587e-06 0)
(8.9053e-06 1.76704e-06 0)
(1.44997e-06 9.76713e-07 0)
(3.3726e-06 -6.70941e-06 0)
(1.79714e-05 -1.07401e-05 0)
(3.0997e-05 -8.31803e-06 0)
(3.52633e-05 -2.17749e-06 0)
(2.58688e-05 5.74237e-06 0)
(6.88909e-07 1.43382e-05 0)
(-4.09708e-05 2.29806e-05 0)
(-9.89487e-05 3.13083e-05 0)
(-0.000172545 3.91151e-05 0)
(-0.000260731 4.62856e-05 0)
(-0.000362282 5.27598e-05 0)
(-0.000475868 5.85114e-05 0)
(-0.000600105 6.35361e-05 0)
(-0.0007336 6.78432e-05 0)
(-0.000874972 7.14509e-05 0)
(-0.00102287 7.4383e-05 0)
(-0.00117598 7.66662e-05 0)
(-0.00133305 7.83292e-05 0)
(-0.00149287 7.94008e-05 0)
(-0.00165426 7.99097e-05 0)
(-0.00181614 7.98839e-05 0)
(-0.00197745 7.93501e-05 0)
(-0.00213718 7.83338e-05 0)
(-0.00229438 7.68587e-05 0)
(-0.00244814 7.49476e-05 0)
(-0.0025976 7.26214e-05 0)
(-0.00274192 6.99002e-05 0)
(-0.00288034 6.68028e-05 0)
(-0.00301209 6.33472e-05 0)
(-0.00313647 5.95508e-05 0)
(-0.0032528 5.54308e-05 0)
(-0.00336045 5.1004e-05 0)
(-0.0034588 4.62878e-05 0)
(-0.0035473 4.13e-05 0)
(-0.00362541 3.60589e-05 0)
(-0.00369265 3.05843e-05 0)
(-0.00374856 2.48968e-05 0)
(-0.00379274 1.90188e-05 0)
(-0.00382484 1.29744e-05 0)
(-0.00384456 6.7891e-06 0)
(-0.00385164 4.90968e-07 0)
(-0.00384591 -5.88641e-06 0)
(-0.00382723 -1.23071e-05 0)
(-0.00379558 -1.87363e-05 0)
(-0.00375098 -2.51366e-05 0)
(-0.00369353 -3.14682e-05 0)
(-0.00362342 -3.76888e-05 0)
(-0.00354092 -4.37542e-05 0)
(-0.00344641 -4.96184e-05 0)
(-0.00334034 -5.52339e-05 0)
(-0.00322327 -6.05523e-05 0)
(-0.00309585 -6.55244e-05 0)
(-0.00295883 -7.01011e-05 0)
(-0.00281306 -7.42334e-05 0)
(-0.00265948 -7.78735e-05 0)
(-0.00249912 -8.0975e-05 0)
(-0.00233311 -8.34936e-05 0)
(-0.00216267 -8.53878e-05 0)
(-0.00198908 -8.66195e-05 0)
(-0.00181369 -8.71542e-05 0)
(-0.00163794 -8.69623e-05 0)
(-0.00146329 -8.60192e-05 0)
(-0.00129125 -8.43059e-05 0)
(-0.00112337 -8.18098e-05 0)
(-0.000961198 -7.8525e-05 0)
(-0.0008063 -7.44534e-05 0)
(-0.000660208 -6.96053e-05 0)
(-0.000524425 -6.40007e-05 0)
(-0.00040039 -5.76711e-05 0)
(-0.000289459 -5.06621e-05 0)
(-0.000192863 -4.30375e-05 0)
(-0.00011167 -3.48867e-05 0)
(-4.67186e-05 -2.63355e-05 0)
(1.46886e-06 -1.75665e-05 0)
(3.28181e-05 -8.85305e-06 0)
(4.7902e-05 -6.19178e-07 0)
(4.82339e-05 6.45727e-06 0)
(3.67896e-05 1.12641e-05 0)
(1.92575e-05 1.19797e-05 0)
(3.17637e-06 6.49288e-06 0)
(3.86092e-06 -1.4281e-05 0)
(1.95301e-05 -2.11716e-05 0)
(2.98737e-05 -1.34594e-05 0)
(2.58763e-05 2.85331e-06 0)
(1.13213e-06 2.36854e-05 0)
(-4.74547e-05 4.64654e-05 0)
(-0.000121081 6.95962e-05 0)
(-0.000219694 9.20926e-05 0)
(-0.000342407 0.000113352 0)
(-0.000487785 0.000133013 0)
(-0.00065405 0.000150866 0)
(-0.000839218 0.000166806 0)
(-0.00104119 0.00018079 0)
(-0.00125783 0.000192821 0)
(-0.00148699 0.000202931 0)
(-0.00172654 0.000211172 0)
(-0.00197443 0.000217606 0)
(-0.00222864 0.000222303 0)
(-0.00248725 0.000225339 0)
(-0.0027484 0.000226786 0)
(-0.00301032 0.000226719 0)
(-0.0032713 0.00022521 0)
(-0.00352972 0.000222329 0)
(-0.00378404 0.000218141 0)
(-0.00403278 0.000212709 0)
(-0.00427454 0.000206092 0)
(-0.00450797 0.000198347 0)
(-0.00473181 0.000189528 0)
(-0.00494483 0.000179687 0)
(-0.00514588 0.000168874 0)
(-0.00533387 0.000157139 0)
(-0.00550776 0.000144532 0)
(-0.00566657 0.000131104 0)
(-0.00580938 0.000116906 0)
(-0.00593536 0.000101993 0)
(-0.00604369 8.64221e-05 0)
(-0.00613368 7.0254e-05 0)
(-0.00620468 5.35538e-05 0)
(-0.00625612 3.63912e-05 0)
(-0.00628753 1.88413e-05 0)
(-0.00629852 9.85716e-07 0)
(-0.00628881 -1.70831e-05 0)
(-0.00625822 -3.52662e-05 0)
(-0.00620668 -5.34632e-05 0)
(-0.00613425 -7.15674e-05 0)
(-0.00604112 -8.94659e-05 0)
(-0.00592761 -0.00010704 0)
(-0.00579416 -0.000124164 0)
(-0.00564138 -0.00014071 0)
(-0.00547002 -0.000156545 0)
(-0.00528099 -0.000171533 0)
(-0.00507532 -0.000185538 0)
(-0.00485425 -0.000198422 0)
(-0.00461913 -0.00021005 0)
(-0.00437148 -0.000220289 0)
(-0.00411296 -0.000229011 0)
(-0.00384538 -0.000236094 0)
(-0.00357067 -0.000241422 0)
(-0.00329089 -0.000244892 0)
(-0.00300821 -0.000246411 0)
(-0.00272489 -0.000245897 0)
(-0.00244328 -0.000243286 0)
(-0.00216578 -0.000238529 0)
(-0.00189482 -0.000231595 0)
(-0.00163288 -0.000222474 0)
(-0.0013824 -0.000211177 0)
(-0.00114579 -0.000197744 0)
(-0.000925408 -0.000182241 0)
(-0.000723477 -0.00016477 0)
(-0.000542078 -0.000145476 0)
(-0.000383081 -0.000124558 0)
(-0.000248065 -0.000102291 0)
(-0.000138227 -7.90536e-05 0)
(-5.42415e-05 -5.53769e-05 0)
(3.92581e-06 -3.20256e-05 0)
(3.72898e-05 -1.01243e-05 0)
(4.8207e-05 8.64281e-06 0)
(4.09408e-05 2.17336e-05 0)
(2.29862e-05 2.53828e-05 0)
(3.92705e-06 1.47625e-05 0)
(3.59898e-06 -2.18241e-05 0)
(1.56983e-05 -2.93283e-05 0)
(1.74911e-05 -1.27139e-05 0)
(-7.96216e-07 1.83715e-05 0)
(-4.62292e-05 5.7455e-05 0)
(-0.000122477 0.000100227 0)
(-0.000231084 0.000143861 0)
(-0.000372105 0.000186525 0)
(-0.000544537 0.000227048 0)
(-0.000746657 0.000264693 0)
(-0.000976263 0.000299013 0)
(-0.00123085 0.000329758 0)
(-0.00150772 0.00035681 0)
(-0.00180409 0.000380144 0)
(-0.00211716 0.000399796 0)
(-0.00244414 0.000415843 0)
(-0.00278226 0.000428392 0)
(-0.00312887 0.000437564 0)
(-0.00348136 0.000443492 0)
(-0.00383724 0.000446315 0)
(-0.0041941 0.000446168 0)
(-0.00454965 0.000443188 0)
(-0.00490169 0.000437506 0)
(-0.0052481 0.000429248 0)
(-0.00558688 0.000418537 0)
(-0.00591611 0.000405487 0)
(-0.00623396 0.00039021 0)
(-0.00653869 0.000372812 0)
(-0.00682864 0.000353397 0)
(-0.00710223 0.000332064 0)
(-0.00735798 0.000308915 0)
(-0.00759447 0.000284048 0)
(-0.00781036 0.000257566 0)
(-0.00800443 0.000229573 0)
(-0.0081755 0.000200179 0)
(-0.00832251 0.000169498 0)
(-0.00844451 0.000137652 0)
(-0.00854062 0.000104772 0)
(-0.0086101 7.09968e-05 0)
(-0.0086523 3.64766e-05 0)
(-0.00866673 1.37409e-06 0)
(-0.008653 -3.41313e-05 0)
(-0.0086109 -6.98479e-05 0)
(-0.00854034 -0.000105577 0)
(-0.00844143 -0.000141109 0)
(-0.00831442 -0.000176221 0)
(-0.00815976 -0.000210681 0)
(-0.00797808 -0.000244246 0)
(-0.0077702 -0.000276664 0)
(-0.00753716 -0.000307676 0)
(-0.00728018 -0.000337019 0)
(-0.00700071 -0.000364427 0)
(-0.00670037 -0.000389636 0)
(-0.00638103 -0.000412382 0)
(-0.00604474 -0.000432409 0)
(-0.00569374 -0.000449469 0)
(-0.00533046 -0.000463327 0)
(-0.00495752 -0.000473764 0)
(-0.00457767 -0.000480578 0)
(-0.00419384 -0.000483593 0)
(-0.00380905 -0.000482657 0)
(-0.00342645 -0.000477647 0)
(-0.00304924 -0.000468473 0)
(-0.0026807 -0.000455085 0)
(-0.00232408 -0.000437469 0)
(-0.00198266 -0.000415662 0)
(-0.00165961 -0.000389748 0)
(-0.00135803 -0.000359875 0)
(-0.00108085 -0.000326258 0)
(-0.000830758 -0.000289202 0)
(-0.000610156 -0.00024912 0)
(-0.000421037 -0.000206573 0)
(-0.000264869 -0.000162319 0)
(-0.000142419 -0.000117401 0)
(-5.3536e-05 -7.32738e-05 0)
(3.14801e-06 -3.19966e-05 0)
(3.05897e-05 3.48087e-06 0)
(3.38663e-05 2.8936e-05 0)
(2.14286e-05 3.84207e-05 0)
(3.93442e-06 2.38733e-05 0)
(2.93142e-06 -2.7312e-05 0)
(8.15191e-06 -3.15655e-05 0)
(-3.00324e-06 -1.97496e-06 0)
(-4.02858e-05 4.82923e-05 0)
(-0.000110766 0.000110358 0)
(-0.000218327 0.0001781 0)
(-0.000364673 0.000247338 0)
(-0.000549886 0.000315262 0)
(-0.000772864 0.000380008 0)
(-0.00103165 0.00044036 0)
(-0.0013237 0.000495552 0)
(-0.00164607 0.00054513 0)
(-0.00199558 0.000588857 0)
(-0.0023689 0.000626652 0)
(-0.00276263 0.000658536 0)
(-0.0031734 0.000684608 0)
(-0.00359783 0.000705015 0)
(-0.00403266 0.000719936 0)
(-0.00447469 0.000729572 0)
(-0.00492083 0.000734131 0)
(-0.00536809 0.00073383 0)
(-0.00581363 0.000728881 0)
(-0.00625469 0.000719494 0)
(-0.00668864 0.00070587 0)
(-0.00711297 0.000688207 0)
(-0.00752528 0.000666693 0)
(-0.00792327 0.000641509 0)
(-0.00830477 0.00061283 0)
(-0.0086677 0.000580827 0)
(-0.00901007 0.000545668 0)
(-0.00933003 0.000507518 0)
(-0.0096258 0.000466545 0)
(-0.00989572 0.000422918 0)
(-0.0101382 0.000376814 0)
(-0.0103519 0.000328415 0)
(-0.0105354 0.000277912 0)
(-0.0106876 0.00022551 0)
(-0.0108073 0.000171425 0)
(-0.0108937 0.000115889 0)
(-0.0109459 5.91531e-05 0)
(-0.0109634 1.48491e-06 0)
(-0.0109457 -5.68222e-05 0)
(-0.0108925 -0.000115456 0)
(-0.0108038 -0.00017409 0)
(-0.0106797 -0.000232378 0)
(-0.0105205 -0.000289958 0)
(-0.0103268 -0.000346447 0)
(-0.0100994 -0.00040145 0)
(-0.00983936 -0.000454556 0)
(-0.00954796 -0.000505344 0)
(-0.00922673 -0.000553386 0)
(-0.00887748 -0.000598252 0)
(-0.00850224 -0.00063951 0)
(-0.00810333 -0.000676735 0)
(-0.00768329 -0.000709513 0)
(-0.00724491 -0.000737442 0)
(-0.00679121 -0.000760145 0)
(-0.00632541 -0.000777268 0)
(-0.00585093 -0.00078849 0)
(-0.00537137 -0.000793527 0)
(-0.00489047 -0.000792138 0)
(-0.0044121 -0.000784132 0)
(-0.0039402 -0.000769373 0)
(-0.00347878 -0.000747784 0)
(-0.00303186 -0.00071936 0)
(-0.0026034 -0.000684172 0)
(-0.00219729 -0.000642377 0)
(-0.00181729 -0.000594233 0)
(-0.00146692 -0.000540118 0)
(-0.00114941 -0.000480553 0)
(-0.000867623 -0.000416238 0)
(-0.00062389 -0.00034811 0)
(-0.000419903 -0.00027742 0)
(-0.000256512 -0.000205849 0)
(-0.000133492 -0.00013568 0)
(-4.92488e-05 -7.00514e-05 0)
(-4.67524e-07 -1.33031e-05 0)
(1.8361e-05 2.85774e-05 0)
(1.60108e-05 4.73956e-05 0)
(3.50014e-06 3.17933e-05 0)
(2.03691e-06 -2.9496e-05 0)
(-1.8509e-06 -2.53262e-05 0)
(-2.91951e-05 2.18559e-05 0)
(-8.91156e-05 9.57912e-05 0)
(-0.00018816 0.000185336 0)
(-0.000330116 0.00028259 0)
(-0.000516643 0.000381994 0)
(-0.000747755 0.000479693 0)
(-0.00102221 0.00057305 0)
(-0.00133783 0.000660296 0)
(-0.00169179 0.000740278 0)
(-0.00208076 0.000812284 0)
(-0.00250114 0.000875917 0)
(-0.00294912 0.000931009 0)
(-0.00342081 0.000977548 0)
(-0.00391229 0.00101564 0)
(-0.00441966 0.00104547 0)
(-0.00493909 0.00106727 0)
(-0.00546684 0.00108132 0)
(-0.00599929 0.0010879 0)
(-0.00653291 0.00108732 0)
(-0.00706433 0.00107988 0)
(-0.0075903 0.00106588 0)
(-0.00810769 0.00104561 0)
(-0.00861352 0.00101936 0)
(-0.00910494 0.000987397 0)
(-0.00957922 0.000949994 0)
(-0.0100338 0.000907411 0)
(-0.0104661 0.000859899 0)
(-0.0108738 0.000807709 0)
(-0.0112548 0.00075109 0)
(-0.0116068 0.000690292 0)
(-0.011928 0.00062557 0)
(-0.0122165 0.000557189 0)
(-0.0124705 0.000485422 0)
(-0.0126886 0.000410558 0)
(-0.0128693 0.000332903 0)
(-0.0130113 0.00025278 0)
(-0.0131136 0.000170539 0)
(-0.0131752 8.65503e-05 0)
(-0.0131955 1.21451e-06 0)
(-0.0131739 -8.50368e-05 0)
(-0.0131101 -0.000171744 0)
(-0.0130041 -0.000258424 0)
(-0.012856 -0.000344566 0)
(-0.0126662 -0.000429633 0)
(-0.0124354 -0.000513066 0)
(-0.0121647 -0.000594279 0)
(-0.0118552 -0.000672671 0)
(-0.0115085 -0.000747625 0)
(-0.0111264 -0.000818515 0)
(-0.010711 -0.000884708 0)
(-0.0102648 -0.000945577 0)
(-0.00979052 -0.0010005 0)
(-0.00929113 -0.00104887 0)
(-0.00876994 -0.00109011 0)
(-0.00823049 -0.00112366 0)
(-0.0076766 -0.00114902 0)
(-0.00711228 -0.00116571 0)
(-0.00654175 -0.00117334 0)
(-0.00596942 -0.00117155 0)
(-0.0053998 -0.00116008 0)
(-0.00483752 -0.00113873 0)
(-0.00428726 -0.00110741 0)
(-0.0037537 -0.00106613 0)
(-0.00324147 -0.00101501 0)
(-0.00275507 -0.000954296 0)
(-0.00229884 -0.000884402 0)
(-0.00187684 -0.000805905 0)
(-0.0014928 -0.000719599 0)
(-0.00114995 -0.000626539 0)
(-0.000850938 -0.000528118 0)
(-0.000597667 -0.000426166 0)
(-0.000391085 -0.000323099 0)
(-0.000230964 -0.000222124 0)
(-0.000115622 -0.000127538 0)
(-4.16067e-05 -4.51134e-05 0)
(-3.29169e-06 1.74043e-05 0)
(7.91364e-06 4.96377e-05 0)
(2.79963e-06 3.71983e-05 0)
(1.02547e-06 -2.7605e-05 0)
(-1.34074e-05 -8.80272e-06 0)
(-5.92599e-05 6.11499e-05 0)
(-0.000144577 0.000163452 0)
(-0.000274972 0.000284932 0)
(-0.000453864 0.000416026 0)
(-0.000682687 0.000549828 0)
(-0.000961261 0.000681424 0)
(-0.00128815 0.000807368 0)
(-0.00166095 0.000925286 0)
(-0.00207654 0.00103359 0)
(-0.00253127 0.00113127 0)
(-0.00302116 0.00121772 0)
(-0.00354198 0.00129267 0)
(-0.00408939 0.00135605 0)
(-0.00465899 0.00140795 0)
(-0.00524641 0.0014486 0)
(-0.00584733 0.00147828 0)
(-0.00645749 0.00149734 0)
(-0.00707278 0.00150615 0)
(-0.0076892 0.00150511 0)
(-0.00830287 0.00149461 0)
(-0.00891009 0.00147506 0)
(-0.00950727 0.00144686 0)
(-0.010091 0.00141039 0)
(-0.0106579 0.00136602 0)
(-0.011205 0.00131412 0)
(-0.0117292 0.00125506 0)
(-0.0122277 0.00118917 0)
(-0.0126978 0.00111682 0)
(-0.0131368 0.00103834 0)
(-0.0135425 0.000954085 0)
(-0.0139125 0.000864415 0)
(-0.0142447 0.000769697 0)
(-0.0145371 0.000670316 0)
(-0.0147881 0.000566675 0)
(-0.0149958 0.0004592 0)
(-0.015159 0.000348346 0)
(-0.0152764 0.000234597 0)
(-0.0153469 0.00011847 0)
(-0.0153698 5.19491e-07 0)
(-0.0153445 -0.000118659 0)
(-0.0152706 -0.000238433 0)
(-0.015148 -0.000358135 0)
(-0.0149771 -0.000477061 0)
(-0.0147583 -0.000594474 0)
(-0.0144923 -0.0007096 0)
(-0.0141804 -0.00082164 0)
(-0.0138239 -0.000929766 0)
(-0.0134247 -0.00103313 0)
(-0.0129848 -0.00113089 0)
(-0.0125066 -0.00122216 0)
(-0.011993 -0.00130609 0)
(-0.0114471 -0.00138184 0)
(-0.0108723 -0.00144858 0)
(-0.0102723 -0.00150552 0)
(-0.00965127 -0.00155191 0)
(-0.00901347 -0.00158705 0)
(-0.00836349 -0.00161031 0)
(-0.00770613 -0.00162115 0)
(-0.00704639 -0.00161911 0)
(-0.0063894 -0.00160382 0)
(-0.0057404 -0.00157504 0)
(-0.00510469 -0.00153266 0)
(-0.00448754 -0.00147671 0)
(-0.00389418 -0.00140737 0)
(-0.00332969 -0.00132502 0)
(-0.00279894 -0.00123024 0)
(-0.00230646 -0.00112385 0)
(-0.00185641 -0.00100698 0)
(-0.00145239 -0.000881089 0)
(-0.00109735 -0.000748093 0)
(-0.000793391 -0.000610472 0)
(-0.000541605 -0.000471445 0)
(-0.000341848 -0.000335201 0)
(-0.000192486 -0.000207224 0)
(-9.01245e-05 -9.47133e-05 0)
(-2.92852e-05 -7.10319e-06 0)
(-1.96444e-06 4.32067e-05 0)
(1.94849e-06 3.92309e-05 0)
(-3.22271e-08 -2.11428e-05 0)
(-2.58876e-05 1.93109e-05 0)
(-9.18453e-05 0.000117746 0)
(-0.000204588 0.000253383 0)
(-0.000368487 0.000411312 0)
(-0.00058637 0.00058047 0)
(-0.00085927 0.000752685 0)
(-0.0011867 0.000922016 0)
(-0.00156695 0.0010842 0)
(-0.00199736 0.00123623 0)
(-0.0024745 0.00137605 0)
(-0.00299443 0.00150233 0)
(-0.00355281 0.00161423 0)
(-0.00414502 0.00171133 0)
(-0.00476634 0.00179351 0)
(-0.00541193 0.00186082 0)
(-0.00607698 0.00191352 0)
(-0.00675671 0.00195193 0)
(-0.00744643 0.00197648 0)
(-0.00814157 0.00198763 0)
(-0.00883766 0.00198587 0)
(-0.0095304 0.0019717 0)
(-0.0102156 0.00194565 0)
(-0.0108894 0.00190821 0)
(-0.0115477 0.00185989 0)
(-0.0121871 0.00180117 0)
(-0.0128039 0.00173253 0)
(-0.0133948 0.00165445 0)
(-0.0139566 0.00156738 0)
(-0.0144862 0.00147179 0)
(-0.0149808 0.00136813 0)
(-0.0154377 0.00125687 0)
(-0.0158543 0.00113849 0)
(-0.0162283 0.00101347 0)
(-0.0165574 0.000882337 0)
(-0.0168397 0.000745616 0)
(-0.0170733 0.000603877 0)
(-0.0172567 0.000457724 0)
(-0.0173885 0.000307798 0)
(-0.0174676 0.000154784 0)
(-0.017493 -5.86157e-07 0)
(-0.0174641 -0.000157531 0)
(-0.0173806 -0.000315218 0)
(-0.0172424 -0.000472772 0)
(-0.0170498 -0.000629269 0)
(-0.0168034 -0.000783738 0)
(-0.016504 -0.000935171 0)
(-0.0161529 -0.00108252 0)
(-0.0157517 -0.0012247 0)
(-0.0153025 -0.00136061 0)
(-0.0148075 -0.00148913 0)
(-0.0142696 -0.00160914 0)
(-0.0136917 -0.00171952 0)
(-0.0130775 -0.00181916 0)
(-0.0124307 -0.001907 0)
(-0.0117556 -0.001982 0)
(-0.0110566 -0.0020432 0)
(-0.0103385 -0.00208969 0)
(-0.00960647 -0.00212067 0)
(-0.00886583 -0.00213543 0)
(-0.00812212 -0.00213338 0)
(-0.00738102 -0.00211406 0)
(-0.00664835 -0.00207718 0)
(-0.00592997 -0.00202259 0)
(-0.00523171 -0.00195037 0)
(-0.00455935 -0.00186079 0)
(-0.00391847 -0.00175436 0)
(-0.00331444 -0.00163187 0)
(-0.00275225 -0.00149442 0)
(-0.00223644 -0.0013435 0)
(-0.00177097 -0.00118105 0)
(-0.00135908 -0.00100954 0)
(-0.0010031 -0.000832167 0)
(-0.000704338 -0.000652985 0)
(-0.0004628 -0.000477196 0)
(-0.000277037 -0.000311468 0)
(-0.000143884 -0.000164377 0)
(-5.82292e-05 -4.6933e-05 0)
(-1.29665e-05 2.66646e-05 0)
(1.02516e-06 3.73185e-05 0)
(-1.09423e-06 -9.79626e-06 0)
(-3.88613e-05 5.99488e-05 0)
(-0.000125969 0.000193057 0)
(-0.000267576 0.000367287 0)
(-0.000466599 0.000566303 0)
(-0.000725089 0.000777731 0)
(-0.00104353 0.000992252 0)
(-0.00142102 0.00120295 0)
(-0.0018555 0.00140477 0)
(-0.00234398 0.00159408 0)
(-0.00288275 0.00176835 0)
(-0.00346753 0.00192588 0)
(-0.00409365 0.00206559 0)
(-0.00475616 0.00218692 0)
(-0.00544992 0.00228962 0)
(-0.00616975 0.00237375 0)
(-0.00691041 0.00243956 0)
(-0.00766671 0.00248742 0)
(-0.00843357 0.00251782 0)
(-0.00920596 0.00253132 0)
(-0.00997904 0.00252851 0)
(-0.0107481 0.00251001 0)
(-0.0115085 0.00247645 0)
(-0.0122559 0.00242846 0)
(-0.0129862 0.00236665 0)
(-0.0136951 0.00229165 0)
(-0.0143789 0.00220405 0)
(-0.0150339 0.00210444 0)
(-0.0156564 0.00199342 0)
(-0.0162432 0.00187157 0)
(-0.0167912 0.00173948 0)
(-0.0172972 0.00159774 0)
(-0.0177585 0.00144697 0)
(-0.0181726 0.00128778 0)
(-0.0185369 0.00112085 0)
(-0.0188493 0.000946851 0)
(-0.0191078 0.000766516 0)
(-0.0193106 0.000580613 0)
(-0.0194563 0.000389963 0)
(-0.0195436 0.000195439 0)
(-0.0195715 -2.02929e-06 0)
(-0.0195394 -0.000201449 0)
(-0.0194469 -0.000401767 0)
(-0.0192939 -0.000601873 0)
(-0.0190807 -0.000800596 0)
(-0.018808 -0.000996711 0)
(-0.0184767 -0.00118894 0)
(-0.0180883 -0.00137596 0)
(-0.0176446 -0.00155641 0)
(-0.0171476 -0.00172889 0)
(-0.0166001 -0.00189201 0)
(-0.0160051 -0.00204434 0)
(-0.0153658 -0.00218448 0)
(-0.0146863 -0.00231104 0)
(-0.0139706 -0.00242268 0)
(-0.0132233 -0.00251811 0)
(-0.0124495 -0.00259612 0)
(-0.0116543 -0.00265558 0)
(-0.0108433 -0.00269548 0)
(-0.0100224 -0.00271495 0)
(-0.00919756 -0.00271324 0)
(-0.00837506 -0.00268982 0)
(-0.00756121 -0.00264431 0)
(-0.00676239 -0.00257657 0)
(-0.00598497 -0.00248671 0)
(-0.00523522 -0.00237509 0)
(-0.00451921 -0.00224239 0)
(-0.00384276 -0.00208963 0)
(-0.00321129 -0.00191824 0)
(-0.00262972 -0.0017301 0)
(-0.00210237 -0.00152764 0)
(-0.00163278 -0.00131396 0)
(-0.00122356 -0.00109298 0)
(-0.000876254 -0.000869634 0)
(-0.000591141 -0.000650122 0)
(-0.000367062 -0.000442274 0)
(-0.00020123 -0.000255966 0)
(-8.90811e-05 -0.000103639 0)
(-2.46255e-05 -1.0418e-06 0)
(7.92495e-08 3.10853e-05 0)
(-2.13772e-06 6.62213e-06 0)
(-5.20415e-05 0.000113766 0)
(-0.000160931 0.000288154 0)
(-0.000332374 0.000506533 0)
(-0.000567694 0.000751438 0)
(-0.000868031 0.00100939 0)
(-0.0012332 0.00127006 0)
(-0.00166177 0.00152564 0)
(-0.00215125 0.00177033 0)
(-0.00269829 0.00199988 0)
(-0.00329884 0.00221129 0)
(-0.0039483 0.00240249 0)
(-0.00464165 0.00257216 0)
(-0.0053736 0.00271955 0)
(-0.00613869 0.00284432 0)
(-0.00693133 0.00294649 0)
(-0.00774595 0.00302631 0)
(-0.00857698 0.00308419 0)
(-0.00941892 0.00312069 0)
(-0.0102664 0.00313646 0)
(-0.0111142 0.0031322 0)
(-0.0119571 0.00310864 0)
(-0.0127903 0.00306653 0)
(-0.013609 0.00300663 0)
(-0.0144086 0.0029297 0)
(-0.0151847 0.00283647 0)
(-0.0159332 0.00272769 0)
(-0.0166499 0.00260409 0)
(-0.017331 0.00246638 0)
(-0.017973 0.00231531 0)
(-0.0185722 0.00215159 0)
(-0.0191256 0.00197596 0)
(-0.0196301 0.00178919 0)
(-0.0200827 0.00159205 0)
(-0.020481 0.00138536 0)
(-0.0208224 0.00116999 0)
(-0.0211049 0.000946819 0)
(-0.0213266 0.00071682 0)
(-0.0214859 0.000481006 0)
(-0.0215813 0.000240457 0)
(-0.0216119 -3.67481e-06 0)
(-0.0215769 -0.000250167 0)
(-0.0214759 -0.000497721 0)
(-0.0213089 -0.000744969 0)
(-0.0210762 -0.00099047 0)
(-0.0207785 -0.00123272 0)
(-0.0204169 -0.00147014 0)
(-0.0199929 -0.00170111 0)
(-0.0195085 -0.00192396 0)
(-0.0189659 -0.00213698 0)
(-0.0183682 -0.00233845 0)
(-0.0177184 -0.00252664 0)
(-0.0170202 -0.00269983 0)
(-0.0162779 -0.00285632 0)
(-0.015496 -0.00299447 0)
(-0.0146793 -0.00311271 0)
(-0.0138333 -0.00320956 0)
(-0.0129636 -0.00328365 0)
(-0.0120762 -0.00333376 0)
(-0.0111775 -0.00335881 0)
(-0.0102739 -0.00335793 0)
(-0.00937219 -0.00333046 0)
(-0.00847913 -0.00327597 0)
(-0.00760161 -0.00319431 0)
(-0.0067465 -0.00308562 0)
(-0.00592052 -0.00295039 0)
(-0.00513022 -0.00278947 0)
(-0.00438185 -0.00260415 0)
(-0.00368125 -0.00239617 0)
(-0.00303372 -0.00216785 0)
(-0.00244394 -0.00192217 0)
(-0.00191577 -0.00166286 0)
(-0.00145216 -0.00139458 0)
(-0.00105495 -0.00112315 0)
(-0.000724763 -0.000855758 0)
(-0.000460848 -0.000601347 0)
(-0.000260912 -0.000370996 0)
(-0.000121077 -0.000178421 0)
(-3.66177e-05 -4.06676e-05 0)
(-8.59938e-07 2.02967e-05 0)
(-3.15152e-06 2.82167e-05 0)
(-6.52414e-05 0.000181214 0)
(-0.000196242 0.000403845 0)
(-0.000398131 0.000672215 0)
(-0.000670564 0.000968006 0)
(-0.00101367 0.00127684 0)
(-0.00142648 0.00158752 0)
(-0.00190697 0.00189143 0)
(-0.00245213 0.00218209 0)
(-0.00305821 0.00245469 0)
(-0.00372076 0.00270575 0)
(-0.00443484 0.00293286 0)
(-0.0051951 0.00313444 0)
(-0.0059959 0.00330955 0)
(-0.00683145 0.00345776 0)
(-0.00769581 0.00357903 0)
(-0.00858307 0.00367361 0)
(-0.00948729 0.00374196 0)
(-0.0104026 0.00378469 0)
(-0.0113234 0.00380256 0)
(-0.0122439 0.00379635 0)
(-0.0131587 0.00376694 0)
(-0.0140627 0.00371519 0)
(-0.0149505 0.003642 0)
(-0.0158174 0.00354827 0)
(-0.0166587 0.00343488 0)
(-0.0174697 0.00330272 0)
(-0.0182462 0.00315266 0)
(-0.018984 0.00298558 0)
(-0.0196793 0.00280235 0)
(-0.0203283 0.00260385 0)
(-0.0209275 0.00239098 0)
(-0.0214737 0.00216467 0)
(-0.0219638 0.00192586 0)
(-0.022395 0.00167554 0)
(-0.0227646 0.00141476 0)
(-0.0230706 0.00114462 0)
(-0.0233107 0.000866265 0)
(-0.0234832 0.000580939 0)
(-0.0235868 0.000289946 0)
(-0.0236202 -5.32277e-06 0)
(-0.0235828 -0.000303391 0)
(-0.023474 -0.000602696 0)
(-0.0232938 -0.000901587 0)
(-0.0230427 -0.00119833 0)
(-0.0227212 -0.00149111 0)
(-0.0223307 -0.00177805 0)
(-0.0218727 -0.00205718 0)
(-0.0213493 -0.00232651 0)
(-0.0207631 -0.00258399 0)
(-0.020117 -0.00282755 0)
(-0.0194146 -0.00305511 0)
(-0.0186598 -0.00326463 0)
(-0.0178569 -0.00345406 0)
(-0.017011 -0.00362145 0)
(-0.0161272 -0.00376492 0)
(-0.0152113 -0.00388271 0)
(-0.0142693 -0.00397317 0)
(-0.0133077 -0.00403485 0)
(-0.0123331 -0.00406648 0)
(-0.0113527 -0.00406703 0)
(-0.0103734 -0.00403571 0)
(-0.0094026 -0.00397204 0)
(-0.00844766 -0.00387586 0)
(-0.00751586 -0.00374736 0)
(-0.00661441 -0.00358713 0)
(-0.0057503 -0.00339624 0)
(-0.00493019 -0.00317623 0)
(-0.00416034 -0.00292922 0)
(-0.00344646 -0.00265798 0)
(-0.00279359 -0.00236602 0)
(-0.00220596 -0.00205774 0)
(-0.00168687 -0.00173856 0)
(-0.00123856 -0.00141515 0)
(-0.000862054 -0.00109568 0)
(-0.000557101 -0.000790138 0)
(-0.000322007 -0.0005107 0)
(-0.000153672 -0.000272199 0)
(-4.87251e-05 -9.27455e-05 0)
(-1.77617e-06 4.81423e-06 0)
(-4.13124e-06 5.50395e-05 0)
(-7.83441e-05 0.0002626 0)
(-0.000231572 0.000540738 0)
(-0.000464243 0.000865208 0)
(-0.000774318 0.00121709 0)
(-0.00116084 0.00158129 0)
(-0.00162201 0.00194588 0)
(-0.0021551 0.00230158 0)
(-0.00275654 0.00264127 0)
(-0.00342209 0.00295962 0)
(-0.00414691 0.00325272 0)
(-0.00492566 0.00351783 0)
(-0.00575265 0.0037531 0)
(-0.0066219 0.00395743 0)
(-0.00752728 0.00413029 0)
(-0.00846253 0.00427157 0)
(-0.00942139 0.00438153 0)
(-0.0103976 0.00446066 0)
(-0.011385 0.00450966 0)
(-0.0123775 0.00452934 0)
(-0.0133692 0.00452063 0)
(-0.0143543 0.0044845 0)
(-0.0153272 0.00442197 0)
(-0.0162825 0.00433408 0)
(-0.0172149 0.00422186 0)
(-0.0181195 0.00408636 0)
(-0.0189914 0.00392861 0)
(-0.0198261 0.00374965 0)
(-0.0206191 0.00355051 0)
(-0.0213662 0.00333222 0)
(-0.0220635 0.00309584 0)
(-0.0227074 0.00284243 0)
(-0.0232942 0.00257309 0)
(-0.0238207 0.00228895 0)
(-0.024284 0.0019912 0)
(-0.0246813 0.00168107 0)
(-0.0250102 0.00135987 0)
(-0.0252684 0.00102898 0)
(-0.0254542 0.000689874 0)
(-0.025566 0.000344095 0)
(-0.0256026 -6.70505e-06 0)
(-0.0255632 -0.000360778 0)
(-0.0254473 -0.000716274 0)
(-0.0252548 -0.00107124 0)
(-0.0249862 -0.00142363 0)
(-0.0246422 -0.0017713 0)
(-0.0242241 -0.00211202 0)
(-0.0237336 -0.00244349 0)
(-0.0231728 -0.00276335 0)
(-0.0225446 -0.00306917 0)
(-0.0218521 -0.00335854 0)
(-0.0210989 -0.00362901 0)
(-0.0202893 -0.00387814 0)
(-0.0194279 -0.00410357 0)
(-0.0185199 -0.00430297 0)
(-0.0175709 -0.00447415 0)
(-0.0165869 -0.00461502 0)
(-0.0155744 -0.00472368 0)
(-0.0145402 -0.00479842 0)
(-0.0134914 -0.00483774 0)
(-0.0124355 -0.00484045 0)
(-0.0113799 -0.00480564 0)
(-0.0103324 -0.00473275 0)
(-0.0093009 -0.0046216 0)
(-0.00829303 -0.00447245 0)
(-0.00731648 -0.00428603 0)
(-0.00637868 -0.00406358 0)
(-0.00548672 -0.00380695 0)
(-0.00464729 -0.00351861 0)
(-0.00386649 -0.00320182 0)
(-0.00314976 -0.00286063 0)
(-0.00250176 -0.00250012 0)
(-0.00192617 -0.00212645 0)
(-0.00142568 -0.00174716 0)
(-0.00100182 -0.00137132 0)
(-0.000654882 -0.0010099 0)
(-0.000383856 -0.000676089 0)
(-0.000186492 -0.000385683 0)
(-6.08072e-05 -0.000157649 0)
(-2.66142e-06 -1.54372e-05 0)
(-5.07648e-06 8.71107e-05 0)
(-9.12811e-05 0.000358135 0)
(-0.000266704 0.000699294 0)
(-0.000530297 0.00108622 0)
(-0.000878325 0.0014996 0)
(-0.00130871 0.0019238 0)
(-0.00181877 0.00234632 0)
(-0.00240499 0.00275727 0)
(-0.00306321 0.00314903 0)
(-0.00378865 0.00351577 0)
(-0.00457602 0.00385322 0)
(-0.00541958 0.00415829 0)
(-0.00631325 0.00442893 0)
(-0.00725072 0.00466385 0)
(-0.00822551 0.00486243 0)
(-0.00923104 0.00502451 0)
(-0.0102607 0.00515034 0)
(-0.011308 0.00524046 0)
(-0.0123664 0.00529563 0)
(-0.0134295 0.00531677 0)
(-0.0144911 0.0053049 0)
(-0.0155451 0.00526114 0)
(-0.0165855 0.00518665 0)
(-0.0176068 0.00508259 0)
(-0.0186033 0.00495018 0)
(-0.0195699 0.0047906 0)
(-0.0205013 0.00460506 0)
(-0.0213927 0.00439476 0)
(-0.0222396 0.00416089 0)
(-0.0230374 0.00390468 0)
(-0.023782 0.00362733 0)
(-0.0244694 0.00333012 0)
(-0.025096 0.00301431 0)
(-0.0256583 0.00268124 0)
(-0.0261532 0.00233229 0)
(-0.0265777 0.00196892 0)
(-0.0269292 0.00159266 0)
(-0.0272055 0.00120513 0)
(-0.0274046 0.000808028 0)
(-0.0275248 0.000403184 0)
(-0.027565 -7.48166e-06 0)
(-0.0275241 -0.00042193 0)
(-0.0274018 -0.000838004 0)
(-0.0271979 -0.00125343 0)
(-0.0269129 -0.00166583 0)
(-0.0265475 -0.0020727 0)
(-0.026103 -0.00247145 0)
(-0.0255814 -0.00285941 0)
(-0.0249848 -0.00323382 0)
(-0.0243161 -0.0035919 0)
(-0.0235787 -0.00393082 0)
(-0.0227764 -0.00424772 0)
(-0.0219136 -0.00453982 0)
(-0.0209953 -0.00480433 0)
(-0.0200269 -0.00503859 0)
(-0.0190142 -0.00524004 0)
(-0.0179637 -0.00540626 0)
(-0.0168821 -0.00553505 0)
(-0.0157766 -0.00562443 0)
(-0.0146547 -0.00567269 0)
(-0.0135243 -0.00567842 0)
(-0.0123932 -0.00564061 0)
(-0.0112697 -0.0055586 0)
(-0.0101621 -0.00543221 0)
(-0.00907835 -0.00526175 0)
(-0.00802673 -0.00504807 0)
(-0.00701505 -0.00479263 0)
(-0.00605087 -0.00449755 0)
(-0.00514128 -0.00416572 0)
(-0.00429283 -0.00380083 0)
(-0.00351139 -0.00340754 0)
(-0.00280205 -0.00299155 0)
(-0.00216898 -0.00255979 0)
(-0.00161534 -0.00212061 0)
(-0.00114322 -0.00168396 0)
(-0.000753539 -0.00126173 0)
(-0.000446017 -0.000868013 0)
(-0.000219296 -0.000519432 0)
(-7.27797e-05 -0.000235644 0)
(-3.51282e-06 -4.04933e-05 0)
(-5.98906e-06 0.000124433 0)
(-0.000104017 0.000467965 0)
(-0.000301508 0.000879871 0)
(-0.000596023 0.00133585 0)
(-0.000982155 0.00181634 0)
(-0.0014567 0.00230534 0)
(-0.00201601 0.0027899 0)
(-0.0026558 0.00325966 0)
(-0.00337123 0.00370653 0)
(-0.00415695 0.0041243 0)
(-0.00500717 0.00450832 0)
(-0.00591571 0.00485526 0)
(-0.00687612 0.00516283 0)
(-0.00788172 0.00542961 0)
(-0.00892568 0.00565486 0)
(-0.0100011 0.00583841 0)