/*--------------------------------*- C++ -*----------------------------------*\
| =========                 |                                                 |
| \\      /  F ield         | OpenFOAM: The Open Source CFD Toolbox           |
|  \\    /   O peration     | Version:  v1806                                 |
|   \\  /    A nd           | Web:      www.OpenFOAM.com                      |
|    \\/     M anipulation  |                                                 |
\*---------------------------------------------------------------------------*/
FoamFile
{
    version     2.0;
    format      ascii;
    class       volScalarField;
    object      dnp1_s;
}
// * * * * * * * * * * * * * * * * * * * * * * * * * * * * * * * * * * * * * //

dimensions      [0 -3 -1 0 0 0 0];

internalField   nonuniform List<scalar> 
6400
(
38757370613122.5
62928062806742.9
85133449956734
107760152623374
136820914863365
159404889323201
175901249129725
202106342881583
221934540471897
246724599194790
260376453738383
293937343020299
303816797323452
320005398559341
348092458104618
363083899672367
394448713100027
396153991984226
426321645743746
432199661220432
464089916110153
471532707809022
471819487215055
485623392584666
509524242679455
508438715263328
529573780079795
533527101556256
550535622436241
562428306663628
602914244958352
575500828313154
588467491792667
597442339915714
609848917441162
590821392554941
620153729118364
603915085838469
607620121788901
595923756349537
629548160533460
602127045112261
622600015192650
595844843895528
593327344143234
589112264282742
598787701021871
593585253139264
567859793132262
585226307096289
558311386197148
578997997311562
543144797475378
534568361010378
518660765098521
509603155133464
493062334895534
486955280832822
461462708799847
448089934886286
429256804094089
414992896858424
397564792686391
379274425602256
366654207042784
339021375281559
333772734742947
296589571352608
295883208654526
266776061289129
246978658802819
224848527188237
196630588450944
180144044583821
154765414435659
144882303213906
111857826149852
88226048276294.9
68336260477974
39007003424951.6
58820765810263.6
92134524382550.9
135782157511444
177777055902344
208862018822372
248158496224957
273187217003877
312295074394441
359844639669989
372328204955446
406299054059410
441497857935517
488500810115002
495171799519780
536031128450548
580755242933767
601578507322196
633770939169953
645909984229369
678098566689126
693170845404884
734213020265673
734790428465741
753773685389956
792752588282504
801588858437535
825110543814280
828986877530732
878055026372458
866628118093124
889562771799801
877225483258361
935122203479117
899934947767011
919643814329311
921653194865545
936596519083289
935093333069113
955649064991512
946695388502467
959814102807998
963330518746408
954070815911328
934895089587090
917380374185047
911571647692369
928241422428314
895519699730496
900031182467022
889759090587824
880693781846766
869986709123516
857938124682110
828124614618632
801948776215577
779102658432911
759824923326662
736780562061973
728625633583021
690841965664612
662446955079299
637033295500334
608717197369030
572157634834763
566006312810046
540134576059027
502135342412593
469161484800745
435019337930761
421914096483232
380989327956457
341954608937902
300261887505037
271732148339708
244734465598557
204471791807859
170825061173533
131657538268963
109882705166822
57071796372259.6
80072852021943.5
129817723274148
175000492337620
237239707161683
267950124629266
316877770808976
361507575286183
411187776819980
465631596004333
490015544293179
529831689075825
574039985566983
633940312241973
655951112828541
725632734412672
767190727265521
791234004716327
824902676862256
865007525744935
909685447572149
918569835077185
979132256488252
971036993523308
1.00261929737299E+015
1.04856366785235E+015
1.06847270259068E+015
1.10005693113436E+015
1.15499539667677E+015
1151515549924367
1.14876131281005E+015
1.17056039705659E+015
1.20712958306086E+015
1211546755791372
1220046204496364
1231727172383727
1.24852205222969E+015
1258158995088811
1.26458169896756E+015
1.22742163190522E+015
1.24394512989715E+015
1.23641380227427E+015
1.25624584925259E+015
1.25533546899048E+015
1.25750074974073E+015
1.22833393686133E+015
1.20952197770314E+015
1.21317312222156E+015
1.19412827508934E+015
1.17479087446908E+015
1.17675791173731E+015
1171534292220703
1.14428447456552E+015
1132745934034177
1.09881742819822E+015
1.06491586807826E+015
1.04137108637351E+015
993580934347938
995101442608116
970197826939210
927590875856238
870681523657597
861008011612469
822831706118014
760814216042777
739007433020233
716041984209553
664845123803579
625046301266935
573216216534887
556346273622919
514309031964013
472533548689139
401912676432898
385641313354999
322442061163625
273454749469909
237351339413696
177972604812767
136412302327118
80780369536426
97170871172938.6
157195533080343
229440847072773
292493822520130
348773799780697
402072426034917
458860522511543
510067006387518
588582973432680
632764324207836
671069584200305
732757951601504
766946291127493
849092231057078
888831388079715
940996369567802
986663584111131
1.02522097901763E+015
1.09241012187147E+015
1.11525816434814E+015
1183061284588048
1212000983575425
1.22393601107082E+015
1.27582961070487E+015
1.30626672162442E+015
1.35767722306442E+015
1.3360263402559E+015
1382532721383324
1.42139421794186E+015
1.42506653409429E+015
1.48371580966913E+015
1.49087759604397E+015
1.48720720458554E+015
1529585117082483
1.52694251222017E+015
1543810530438143
1.56172750688623E+015
1.56672016312282E+015
1.54714794983453E+015
1546245268348427
1.55957569899398E+015
1.57281566902153E+015
1.56158892891822E+015
1.52358969527178E+015
1.52765849838826E+015
1.49907101840292E+015
1.48385823702515E+015
1.49579903860254E+015
1.47758758397242E+015
1458334869888169
1.44253505684033E+015
1.42422929220419E+015
1.39786675848311E+015
1.35980785932267E+015
1.3300463159972E+015
1.29817530804748E+015
1.26970523439616E+015
1225962713853054
1185320875344312
1159304786543276
1.10153702082054E+015
1.0609336761918E+015
1.00755421278957E+015
964810608432581
937248990349365
877058034880342
830312991696887
798605582737187
730175012253202
684567463223880
637214216736355
581813824633890
517917833214434
464442135112195
410319739825879
340139622495690
290567203825905
226161168496390
158975297622350
98961798940147.6
114246756342931
208931307806380
264004501928806
341968081795903
407296045551526
487363315960869
551078386144304
619376152742273
685044787335936
755933192058208
825139414224283
864936312066927
920198126201375
1.01018334479388E+015
1.08517134773663E+015
1136628041832630
1.19221127986512E+015
1246597358229462
1.27598936030689E+015
1.33698868725601E+015
1373507831216271
1.42811140000264E+015
1473615015555952
1518974279059245
1.57453057137573E+015
1.61394445511233E+015
1.63727752047705E+015
1666806175828495
1690168111603221
1.73727499725872E+015
1.73936329024896E+015
1.748290021022E+015
1.79083153250897E+015
1772146603154787
1.81095420828132E+015
1.81863566203621E+015
1834408529368052
1.88419843845986E+015
1.87580484792488E+015
1893025085144892
1.87040030717225E+015
1881575080537556
1877471632929077
1843550825869119
1.78906851280476E+015
1813419741295603
1811912705893427
1771873296606755
1.79218266769712E+015
1.74254480943133E+015
1.73437448340038E+015
1.66548391105034E+015
1.66020062601972E+015
1.67934748193396E+015
1620621218599106
1.5726078020695E+015
1.53522062111514E+015
1.47470054297208E+015
1421904261851918
1.39101869723031E+015
1.33856501164219E+015
1.25152842425804E+015
1.20439844227454E+015
1151900488724412
1.10765947243525E+015
1.0558197642332E+015
1.00570458185535E+015
970095818157198
872406049481799
823538068816097
748867640383383
677130445607012
630050505667519
539778507668985
465735529480345
407113199621505
341024981735793
273922450111963
186630648303377
113915708974893
137779604944877
234445051473357
319991925701339
409524841203786
470483749578899
556404014442925
636323083414251
725981104026713
798642151923191
874444300428037
945209524734294
1.00859932163169E+015
1.08516942304263E+015
1.18184102859191E+015
1.25710233808269E+015
1.28851141947235E+015
1.38128359497718E+015
1.42405414505017E+015
1.46869357299738E+015
1565424844060665
1.62940937140413E+015
1.66921204332878E+015
1702149331754619
1.76679595383416E+015
1.81010541822722E+015
1.86866615787805E+015
1.89476308382709E+015
1.9350681008858E+015
1971964484870103
2.01236381193482E+015
1.99981480705335E+015
2.03886684831791E+015
2086060345203416
2105230297445654
2.12543958444801E+015
2140798642569804
2159776125412018
2193246554075924
2.22402241113951E+015
2.16102717651216E+015
2.18023562263441E+015
2182295045214646
2149921692130869
2154040537291349
2137372687249404
2.13898943020959E+015
2.10611565668576E+015
2.082480414363E+015
2.06902680330143E+015
2.03526767053749E+015
2.01178640373475E+015
1.97013602556989E+015
1.91751296690975E+015
1905246892046318
1.86439141250355E+015
1.82508916101896E+015
1784787993348262
1713614733913957
1655966299219230
1625363664615659
1.57288110861754E+015
1484712801161247
1434759293079418
1.34303800049872E+015
1.29214909113278E+015
1.23897556998857E+015
1.18632749030643E+015
1.09579758331187E+015
1.01920631026693E+015
957920203911777
875997528486218
792334929684455
715431856211482
629525064205458
545754682539683
481188897608149
400109238154688
319462634851277
217290253849355
136359758180911
153248563094082
256068988565880
363457290308411
461710994325876
533642583196269
627044133639168
718576806207849
817660053339410
899147747920919
1.00276172472901E+015
1.07354427128127E+015
1.15511857709279E+015
1.24540019856132E+015
1327609653392915
1392054182602435
1.48678954598749E+015
1532730067078850
1.62935355527812E+015
1.72225083589296E+015
1786830093682500
1.83085554424364E+015
1.90736790483457E+015
1.93537605192583E+015
1974697550350422
2.0413304566382E+015
2.12184040666759E+015
2.20344743227711E+015
2227332884819901
2.20188843013693E+015
2280512180046107
2.31611901905026E+015
2.34194841253328E+015
2361541797455562
2.3755728167172E+015
2417685121442113
2.43306342650391E+015
2.49095822203066E+015
2.48506865838998E+015
2450924586825992
2470729688088303
2476676992548997
2.48753226671026E+015
2472500406568510
2474174890348705
2431485177423724
2.41818554188217E+015
2.41980228484236E+015
2400709320360132
2354612899054753
2.32260523783102E+015
2.26657739548448E+015
2.23526262410083E+015
2258339705163520
2.14701540419053E+015
2.09412481306436E+015
2108637005826051
2.0516660634194E+015
1.95779873702845E+015
1.86776732577994E+015
1859046537264927
1.80026060841607E+015
1720857357436802
1.61964732343499E+015
1.54141813579586E+015
1.47638080083427E+015
1.3942829782547E+015
1.37600223464056E+015
1276799656480986
1.16470547790791E+015
1.10631988541109E+015
991026865409640
907291128235869
817509927207393
726113907912728
616071453143888
542896511949349
438297091813144
369987777051173
265661663462999
164190833424159
172630616615144
296233502962567
414147956192326
517273060724359
606569238864779
720489952044072
823145431240051
901915457893242
1.02674918605381E+015
1.1243330965592E+015
1.20455049310056E+015
1301331806207849
1.41853797204553E+015
1.47282204162786E+015
1.5648666828006E+015
1.67417197976735E+015
1.75911065069127E+015
1.84258847886901E+015
1902417591865988
1.99427168833271E+015
2.04273548325836E+015
2.10873324052606E+015
2.19336203571594E+015
2.24165260818157E+015
2.30197251814861E+015
2354728380694767
2.44996223982588E+015
2434122008204031
2.54565802551705E+015
2596835638983018
2581669050261248
2.60911518670445E+015
2.63417470258737E+015
2.66485432495095E+015
2.71462691179676E+015
2703713896815489
2751965975401119
2776525070843985
2790017175785560
2787823024625303
2794366984226067
2770019605123226
2755295696021508
2.80810929938767E+015
2.73456674163909E+015
2678115466612502
2.70987291761621E+015
2.66874220683141E+015
2649168068849124
2571699135340084
2.56147901019889E+015
2.54750573175726E+015
2.45115555010602E+015
2406714365640833
2353958503094677
2320757531590803
2.26752049554459E+015
2239458457021316
2.15415601893136E+015
2.04754721825892E+015
1981915152851264
1892792197170865
1.8117009895534E+015
1.70898199545542E+015
1666546342138465
1.58047017706042E+015
1.50092449872514E+015
1428417426348678
1343230469898738
1.22697702759117E+015
1.1217828770089E+015
1.01420403056034E+015
929182597794424
805128370703948
713776619371289
602186710626268
495410461575808
415350889942466
301924823121231
177350736181295
187127219355435
320507743693399
465585403348328
575063922775103
696371611527258
779389437838945
911384952374347
1.02776349979193E+015
1.1209052165448E+015
1.23555346405617E+015
1.36075095938278E+015
1419985341933694
1.55641535144561E+015
1.68217678211429E+015
1.78571762055037E+015
1.80622908451076E+015
1923937595482499
2075378293502170
2124515731327904
2.19888590749658E+015
2.2873255968069E+015
2345663071953709
2.38785236443863E+015
2.50649050261248E+015
2.54121198237653E+015
2607921876424311
2.69743939437476E+015
2.71882274471725E+015
2.76428401700256E+015
2.82054282262912E+015
2.88348031643647E+015
2.90659589137916E+015
2983545157508142
2989550202788842
2989646437488854
3021057443572519
3.05643331929665E+015
3.09063513168064E+015
3.1126343841032E+015
3.09898830364161E+015
3084610839459935
3.08722842330024E+015
3.04357636337515E+015
3.03316376883393E+015
3.02596541327309E+015
2.97103464650668E+015
2957888986485148
2916277102200292
2922416876061009
2.88577070229673E+015
2823506851389467
2.76599699466276E+015
2707582531755940
2680521334112783
2.61796877910548E+015
2.56963971275984E+015
2.52760439579494E+015
2.45860411588689E+015
2348280655794014
2291752393007418
2.16924561989312E+015
2136583562709312
2.04791291011897E+015
1942054740106613
1.80560548365469E+015
1726623740661475
1668569195532701
1.55253901772916E+015
1.46669381593114E+015
1.34480102020292E+015
1.26074000974311E+015
1158788968551216
1.02571370068169E+015
897631089048742
789750065642154
679341919013271
557243181027023
453914058930966
316671828550951
198922899005212
210436418514555
339610331645628
494873471949745
625506303132989
759482327794622
868375740245328
998331079140493
1.10617938274908E+015
1.23779188317843E+015
1364477166967217
1501355630181189
1595400028420163
1.6762544986756E+015
1.82972382417151E+015
1.93726225204605E+015
2.03992543001803E+015
2142453879409997
2.24080574282147E+015
2.33513499577248E+015
2.42449853820291E+015
2.53220441445548E+015
2574663164100430
2.65832961229019E+015
2.75643126548164E+015
2831455837610395
2.92255160464102E+015
2966453874786147
3.02675453781318E+015
3.08640080488014E+015
3126434440084815
3.18275098653139E+015
3220763693035822
3265532075481046
3274443408702086
3332415191988850
3312879547886571
3.36240192451235E+015
3.35866801815191E+015
3351642885051094
3380763505274492
3.41348330327831E+015
3379185256194308
3374835447753800
3.33861270666957E+015
3331048659248691
3.28389365624319E+015
3259604017960354
3220744446095820
3.20240211227368E+015
3157941680868492
3121892162244285
3068597385378066
3.01520637381184E+015
2.96243126432568E+015
2.86783255421464E+015
2861404076253889
2756546747121654
2.63942911720799E+015
2.59539211848285E+015
2500139012411734
2.39483900365945E+015
2.27673977980567E+015
2.17577033255388E+015
2089178349483781
2.0104968587546E+015
1.936761831606E+015
1821536175894550
1721149910924836
1.56332885229442E+015
1.48469740360925E+015
1.37240113216614E+015
1.24620857004142E+015
1.08428983788452E+015
978768489322210
853580617465602
744719924812899
611810180627391
482601623004314
357948816079768
207199083206177
238036530477776
373196241949547
536545021748608
673367668836573
792879618086519
945342328620309
1.08569486450469E+015
1.20272973257634E+015
1.36110702777282E+015
1.4885872101837E+015
1.66463704569024E+015
1737946715464796
1.81204358508544E+015
1.96105146988883E+015
2.09333568852427E+015
2.19417040719603E+015
2.31494495571012E+015
2.41737717040208E+015
2531473030735391
2.66562420255104E+015
2748520773140717
2847373056992252
2.89962849909835E+015
2.92176248010093E+015
3.04686759011553E+015
3147355863867256
3241011473918185
3265955508161095
3.37063961483331E+015
3388212071055361
3.43022814108026E+015
3.45571108964324E+015
3.50101838640852E+015
3.56212742091565E+015
3.6173468917821E+015
3628895055783446
3.6353235337442E+015
3693468539490981
3662519459967369
3.7467825632972E+015
3.71700754711373E+015
3679514507989352
3702148909431994
3.64783404474566E+015
3.62323645542279E+015
3544227766713566
3.56370566999584E+015
3.53439258037242E+015
3480866840226173
3.45093784852268E+015
3413560291038319
3329566644868518
3.2617211813606E+015
3193221321892608
3.14652824544716E+015
3.08982676020054E+015
2931135739882026
2901610933918581
2807050717687547
2718226089577182
2634848345487453
2.47956403354933E+015
2407003069740867
2287595053966933
2189820598755524
2125150880347978
1.97900886491092E+015
1.8373590852704E+015
1744592683847572
1.59891836905257E+015
1489220434509773
1.34784781080528E+015
1.20270663624834E+015
1.07690286231166E+015
947068779138511
812677020572829
651185570483985
531286757739994
381387739614503
223535885880084
272555917371804
412583179970143
566966735116158
730617691873254
877498789806393
1.01481608325242E+015
1.17267178637484E+015
1.30267331792601E+015
1.43227258843113E+015
1.59172963696173E+015
1.74505268571363E+015
1878884358325242
1.95756777374842E+015
2105730717885712
2243442573601781
2394049879119355
2.53597681469592E+015
2633674282147316
2745441262740358
2850972234772672
2.939469664903E+015
3.0817815392796E+015
3099373242441658
3.21651011929533E+015
3327718938628302
3400029692216740
3492568979747538
3.54297671561342E+015
3565842080336088
3.67427934030874E+015
3.74120095069655E+015
3.79397606018271E+015
3869327830291501
3874582244912114
3.87931699215267E+015
3909207489976155
3996203658786306
3.99094924416569E+015
3.93623019373931E+015
3976956718784060
3980247945524444
4015431351848549
3.97014330202326E+015
3932265324098845
3.87560233273223E+015
3.87771949613248E+015
3839321850828000
3777269716260759
3.76774248095965E+015
3711637650853101
3677993999729175
3607761915660980
3.52401847971121E+015
3.49364680838766E+015
3420777893539161
3.31168623760643E+015
3.24678555591886E+015
3124240288924559
3017400524972092
2.95532914346485E+015
2870989052375008
2732449578238842
2625282616306337
2501332322691874
2.3841377050182E+015
2.25420161306304E+015
2144378573410221
1.98913275535211E+015
1851632615976062
1.73362385274029E+015
1592538008441829
1478011016652465
1.30363566492612E+015
1.16006119128536E+015
1.01404813034633E+015
866431799305101
731066145575306
571788093586720
408139061523625
245488945646645
282477714942962
448638472676350
620184524222368
773855942588299
938432677159503
1.10155241837254E+015
1.25341269968426E+015
1.44769708614893E+015
1.54645313530045E+015
1711638073175726
1.87154742479639E+015
2.01779144901545E+015
2.15891001311192E+015
2.29552479324786E+015
2.4029612123404E+015
2.57412424978037E+015
2.67878910951258E+015
2.7920765983658E+015
2.91346704895996E+015
3.02900642979345E+015
3.14931905174749E+015
3.32923944688848E+015
3.37806893367418E+015
3.479365578906E+015
3624641482042950
3681901128549631
3764239537879239
3.81851590868557E+015
3.89138482353407E+015
3964542442482611
4.02865399963009E+015
4043435649551817
4.09343919967765E+015
4.21787066679217E+015
4184150027908237
4251187119936058
4.25284235677625E+015
4.24283394797508E+015
4270434059938305
4262042394097326
4.30996727470292E+015
4254093407876398
4.28852618354042E+015
4254228136456414
4.25682647335672E+015
4202242151510349
4155587568944904
4.13147115312209E+015
4078484327295907
4.03179125085046E+015
3.97940108016434E+015
3898429203574897
3.84476873484864E+015
3.73465699109579E+015
3665656711187735
3585531699958386
3.49170286744744E+015
3.37799194591417E+015
3265224124441010
3159558423828680
3057549641816777
2.9977686461698E+015
2821235712469202
2.72675248399818E+015
2.57048657811994E+015
2.43964587998468E+015
2.29319591350759E+015
2114160877606696
2.02410444533619E+015
1.85677539834466E+015
1.70475729212492E+015
1.56932042471712E+015
1.40477833463792E+015
1.22092578965447E+015
1.09391330788565E+015
912418513052467
774991512048432
612052692071419
447537547708222
255934259985864
298891505376877
494232548847671
665014496875599
826251887356413
1018663546558865
1.18988047543084E+015
1.33590123514588E+015
1.50688912543183E+015
1.63103766252832E+015
1.84264621968901E+015
2.01363410997497E+015
2157678208951774
2332151720072132
2477966537529147
2579821344021033
2.71441519545674E+015
2922647839341036
3002214689310320
3.18619618879179E+015
3274000729082034
3444066690941879
3.49245349810752E+015
3609782844361216
3.70803847307268E+015
3849214777989154
3995760979166254
4.0244389197696E+015
4123483673021158
4129123026441816
4249782093315895
4.2729554090786E+015
4357526463448468
4.43759373385781E+015
4.48938724940386E+015
4457360341240117
4546492920390517
4573611858853682
4573207673113635
4612355949078203
4594918221436168
4629735935900231
4609757612177900
4583119847214792
4546030993830464
4489675953503889
4.44225149333835E+015
4429105833316820
4392132461572506
4371923174570148
4305001564182339
4244508431755281
4.2052446741507E+015
4073345394315307
4.01129325974807E+015
3926837687018211
3831931025867137
3723974939394540
3.65686085960671E+015
3501210855808547
3382361001294679
3.29251628536419E+015
3174397814570412
3.03166250751376E+015
2.90284273807872E+015
2.73221861495882E+015
2579012972540938
2445593184445369
2.31394411483001E+015
2.17388413243366E+015
2.01072782203463E+015
1.80417543601252E+015
1.67833894227784E+015
1.51351969626261E+015
1323588967626446
1138325621940828
1.00190716059291E+015
802633967279657
643556083467095
465606574982330
279477116996611
294347302842347
512786599009836
696929772787323
903682326985448
1.08179543446023E+015
1.26858506248803E+015
1.45329602099558E+015
1.61366537448229E+015
1.75934738805329E+015
1.96145565562888E+015
2.09169969862407E+015
2294292989087714
2.48672389523017E+015
2.63621487822761E+015
2.76765223150295E+015
2.91442939596008E+015
3082686145459710
3197917575253156
3326313912008138
3.4853898711267E+015
3.64679470998553E+015
3722069492334318
3.83452936276744E+015
3947701369980646
4.11180078043979E+015
4.15959093246537E+015
4280192258519444
4410186091294612
4.45029671425929E+015
4522934665827769
4638339318081235
4656566170263362
4733245979232310
4782960825258111
4836313342944337
4814237102761760
4881601392769620
4859428917887032
4939765645456408
4910991470153050
4898942885711645
4891244109710747
4912492731473225
4815892339601953
4821377717502594
4760037719715435
4715211596450205
4670558695644994
4646249810422157
4597247101176440
4540122183249774
4447659883478984
4.36374322506919E+015
4292414065420869
4206803676290881
4.06401062841422E+015
3.92302679289777E+015
3.84390262254853E+015
3.71949040237402E+015
3608705015721090
3491452657227408
3346157507150454
3205481622674039
3050255051555926
2.89735736017808E+015
2746480597500479
2611213103164695
2.46510958160765E+015
2.31894831923059E+015
2096588421384645
1.97215695427013E+015
1.79068718045895E+015
1.58586316964905E+015
1.42988019378885E+015
1.25007528028787E+015
1.08112756564215E+015
870931733877626
697711198551414
504583553180878
300521721195067
313763615916612
544386225105523
738114375004129
935195341851125
1.12171743741289E+015
1.34271465190668E+015
1.54224575421596E+015
1.73150668934004E+015
1.8716860027644E+015
2048894504059080
2.24734970242224E+015
2434083514324027
2.59612350220293E+015
2.776640552484E+015
2.93631316674263E+015
3.13053403830529E+015
3258891881180271
3.38661457503517E+015
3.5514068753344E+015
3.6705261870083E+015
3858684272470259
3.95012648442093E+015
4.09486347323782E+015
4247953634015682
4.37001772750993E+015
4.44563895477875E+015
4615743410518598
4556501329191686
4697696881048161
4787676325558660
4834311661184102
4954181603518090
4973082098600294
5099226543375016
5080268307472802
5139548882679721
5200080508986783
5132696972038920
5206701456347555
5182816003804769
5153810865221384
5207606062527661
5184836932505005
5148344734260746
5155677818401602
5105231588655716
5036731729187724
4938841792336300
4942383229296714
4890050799430607
4772394255196879
4753782464214705
4630813764540356
4498933731644969
4406567666574189
4315337170963545
4138534780102914
4.11212797841983E+015
3956959148121727
3806274854844144
3.693622515011E+015
3585416218318372
3.46325589012412E+015
3.21851180105556E+015
3.11409715154338E+015
2923821902681173
2.76443799252257E+015
2.59541136542285E+015
2.4175888867421E+015
2.26345939120412E+015
2.0542066594997E+015
1.88095532906948E+015
1724215948467194
1.51558874231285E+015
1.31615772409158E+015
1161702955267556
924417055449868
741484514198522
530314787269881
309612050958128
314962700278752
572051776664751
790090736480193
1.00101987665881E+015
1179999096433691
1.38160309418122E+015
1623194534477406
1.82519116980098E+015
2008418189234357
2.19634531141629E+015
2.40251853272034E+015
2.60422646394388E+015
2.73920525417963E+015
2.93617843816261E+015
3.12772398506497E+015
3.29638492030465E+015
3459117798023635
3587899073578662
3.79280199684257E+015
3904857681535647
4.04743901307228E+015
4188307366948722
4328636806505097
4.47345078308199E+015
4597939991016521
4683935318946556
4841663992264962
4875827310768947
4990404344602317
5100573829175172
5139471894919711
5232261392670538
5249756861132580
5315042481620198
5376632689627385
5420881404692547
5462281572637379
5427694821453343
5495463297201250
5504913544742353
5495155346161215
5455564390576594
5469999595578279
5457797035616855
5389990065988943
5380405089867824
5336483572782699
5210666325988018
5191977547245838
5134891123199176
5082077519833013
5003126571943801
4913301102953321
4791102280879060
4632642223840571
4538832638269624
4375541599290570
4.2987078148016E+015
4.17808724180753E+015
4.05644658099334E+015
3909168996096150
3.74237501403669E+015
3.63305239482393E+015
3.39716189815641E+015
3.21876201127559E+015
3094715482961114
2.91571894094023E+015
2.75144630802106E+015
2.56746480853959E+015
2.34531662703367E+015
2.18922394361545E+015
2.00895710355442E+015
1.80331124840642E+015
1.62068665819511E+015
1.40525373405598E+015
1.19575464151953E+015
994256501942017
768820943083712
563140443443711
331903856868729
354199512167331
612984243967527
821288101529834
1.05990588959568E+015
1272272776192458
1.48620251431742E+015
1.69700077530402E+015
1.93518358252581E+015
2.11004203244621E+015
2.30836250222936E+015
2.50508547599231E+015
2.70592729491575E+015
2.888099582037E+015
3120082949884074
3312013435586470
3.46215881454399E+015
3670160495148261
3.76660691149952E+015
3999032958966636
4163209357185793
4258924389816962
4.40625971553415E+015
4518507869627251
4701527022108608
4824514968722959
4898038279531537
5078093403252549
5150635120121012
5194383414746118
5375612601807266
5401923168790335
5445786945055454
5587174966311952
5585885421331801
5615718178335283
5688375376843761
5732450869448904
5766729669592903
5749830856270932
5766960632872931
5748599052110789
5797832724636533
5781915505254676
5690088354503961
5696536079404713
5673285775882000
5613216076134990
5537248403946126
5530319505545318
5411642873491469
5313233269259987
5230298204790309
5120783116177530
4998295590003237
4899635775551726
4793257938159313
4678276718585896
4516409953167008
4.41457439361512E+015
4219525903632365
4.06888010423479E+015
3955284664341531
3.74002688735641E+015
3.59811919871985E+015
3.41737118515876E+015
3278696982442582
3061860956377280
2883172365396430
2.69241594303417E+015
2472500406568510
2.34500867599363E+015
2.11887637790725E+015
1879511808569315
1690218153647227
1490334832335903
1.27258265192649E+015
1.0446661625019E+015
806310132820086
585738275700348
350094139864852
379899951152329
621524111246524
867944608789278
1.10560967332501E+015
1.35187234595975E+015
1.58230248574863E+015
1.78695904818052E+015
1.99750517425308E+015
2188877498695414
2418070060242158
2671379037611716
2815885063148578
3057549641816777
3.25964251184036E+015
3437522731341115
3.61107238934137E+015
3832296717727180
3.97682199020404E+015
4.15510639544485E+015
4342667825766734
4483574673523176
4650830582142692
4815160955881868
4899693516371731
5017734999405506
5183720609984874
5296988851898091
5461877386897331
5486648198680222
5629017813876835
5710721074186368
5784590829914987
5849895697342609
5861135910303920
5913872525910073
5934986419092537
6056376869686702
6071889903328512
6083669030609887
6084150204109942
6128668376335138
6064268115087623
6074315017768795
5970978196896737
5976521315617384
5938643337692964
5883905040326576
5804723129157337
5810882149958056
5667530940821329
5602399295853729
5453735931276382
5420746676112532
5314465073420130
5185645303985099
5075418078592237
4906256722912499
4716809092470392
4569550754513208
4.43001043949693E+015
4360971665708870
4.10442920241893E+015
3.94263942476006E+015
3.78602707396178E+015
3595097429139502
3411135176598036
3242859180158400
2.98801044758866E+015
2.84879733055242E+015
2.66685600671119E+015
2.45889281998692E+015
2206565436557478
1.97818124649083E+015
1.75969960705533E+015
1.55070863373495E+015
1.31307051491522E+015
1.08428213910852E+015
853778860947625
614358475483688
373115404801538
396766044676297
656722915122631
908823184660048
1.16796398485029E+015
1386149221409746
1.63467918357675E+015
1.83905089129659E+015
2055265241199823
2.29394654416767E+015
2.58178453190126E+015
2.78389664886485E+015
2.93916171386296E+015
3.19851423039323E+015
3.43163316770043E+015
3.63903819316463E+015
3815859830965262
4009753504547887
4200490679970144
4364686325129304
4525706225188092
4747854406694015
4849112558045831
5007996047764369
5141569811379955
5321740416740979
5434854683134178
5567331371169636
5687509264543659
5763226726512496
5965781523096130
5947766387254028
6049775169265932
6103878317612245
6097026406971445
6183541402281541
6218840290245659
6303700048715561
6304681642655676
6353722845781398
6363442550482532
6339249146899709
6368466001823119
6331993050518863
6286781988453587
6253215325089670
6152573075817927
6194993331582876
6113867479473410
6044578495465325
5932041637272194
5812364164338229