/*--------------------------------*- C++ -*----------------------------------*\
| =========                 |                                                 |
| \\      /  F ield         | OpenFOAM: The Open Source CFD Toolbox           |
|  \\    /   O peration     | Version:  v1806                                 |
|   \\  /    A nd           | Web:      www.OpenFOAM.com                      |
|    \\/     M anipulation  |                                                 |
\*---------------------------------------------------------------------------*/
FoamFile
{
    version     2.0;
    format      ascii;
    class       volScalarField;
    object      dnp2_s;
}
// * * * * * * * * * * * * * * * * * * * * * * * * * * * * * * * * * * * * * //

dimensions      [0 -3 -1 0 0 0 0];

internalField   nonuniform List<scalar> 
6400
(
171691517200721
278765416922630
377133199604991
477367370515692
606103821958663
706148710920212
779226037856119
895312145697508
983149201560219
1.09296683692342E+015
1.15344327229852E+015
1.3021148645212E+015
1.34587992060189E+015
1.41759390593108E+015
1542016945749031
1.60842762601642E+015
1.74737080814987E+015
1.75492503368805E+015
1888564910759699
1914603968088831
2.055874806624E+015
2.08884567587473E+015
2090116081749665
2.15126608802489E+015
2257144612554413
2252335827900310
2345962183018582
2.363475026422E+015
2438821178883539
2491504654730529
2.67085356465793E+015
2549414699713982
2606855802931521
2646613538467128
2701573513432285
2617283362562670
2747222862790560
2675287195899306
2.69170015770631E+015
2.63988635567974E+015
2.78883931296197E+015
2667366343162317
2758059680690143
2639536780908785
2628384493093950
2.60971208459664E+015
2.6525733620012E+015
2629527005759996
2.5155656304289E+015
2592497658680618
2.47326708314343E+015
2.56490683041701E+015
2406080517408795
2.36808770815581E+015
2297618550059780
2.25749418732537E+015
2.18421990484778E+015
2.15716622806148E+015
2044236524615395
1.98499639025953E+015
1.90156738699641E+015
1.83837961559294E+015
1.7611747484956E+015
1.68015013755953E+015
1624243752848622
1.50183289951714E+015
1.47858191414171E+015
1.31386398731084E+015
1310734866800098
1181792933601517
1.09409229716162E+015
996057889443751
871055067078850
798021223833964
685596272252278
641815016365126
495519679963538
390833120140829
302723225432495
172797367146887
260570476405155
408147302759778
601502224302955
787535685948121
925239156576766
1099318866298080
1210193752188072
1383437892944666
1.59407800797944E+015
1.64937903150163E+015
1.79986670729049E+015
1955794107563958
2.16401277784383E+015
2.19356463531036E+015
2.37456763073935E+015
2572691263731182
2.66493637219349E+015
2.80754582631499E+015
2.86132065754447E+015
3.00391305923812E+015
3.07068184049039E+015
3.25249482624233E+015
3255052690420044
3.33914673836937E+015
3511819622792938
3550963470925893
3.65516233131205E+015
3672334126158440
3889701423980607
3.83908129190364E+015
3940679657042454
3.88602662577862E+015
4142503666878043
3.98662742388813E+015
4.07393585448745E+015
4082837221825893
4.14903474674514E+015
4.14237577366916E+015
4.23343573839579E+015
4193771791213365
4251886465331035
4.26746385817332E+015
4226444242976703
4141497573634809
4.06390902691081E+015
4.038176913283E+015
4.11202245209361E+015
3967068289142541
3.98705373458442E+015
3941549330862877
3.90139086327276E+015
3.85395953520401E+015
3800585436029038
3668514382319720
3.55255787293E+015
3451351713631770
3365953154951813
3263868795619233
3.22774322721598E+015
3060365121640278
2.93457788759421E+015
2.82199775891908E+015
2696560099643964
2.53460466612502E+015
2.50735488641843E+015
2392745518828977
2224412477293595
2.07834138031825E+015
1.92709487149E+015
1.86903988086981E+015
1.68774699416734E+015
1.51482684953993E+015
1.3301320034811E+015
1.20374793446023E+015
1.08415073172423E+015
905790862612211
756739001248440
583230547860148
486770079232969
252822705810858
354715225330110
575080339968558
775235769738885
1.0509496546975E+015
1186993924096203
1.40373880830179E+015
1.60144465681126E+015
1.82152329066181E+015
2.06270430397849E+015
2.17072290820337E+015
2347104695684628
2.54294330334436E+015
2808296133140453
2905801915594925
3.21448496456149E+015
3.39858297564552E+015
3.50509244000555E+015
3.65424150020807E+015
3831902219778188
4029821223635800
4069178227116898
4337464074503432
4.30160281873188E+015
4.44150946303893E+015
4645038715659658
4733233872507249
4873149043028226
5116521293323822
5101105898546130
5088904886418433
5185472785341075
5347470849929653
5367038510889166
5404690271585123
5456435863900285
5530835606616069
5573526359742122
5601978335612230
5437362723348461
5510560269900720
5477197194809398
5565051303099960
5561018403913098
5570610394579528
5441404148749249
5358068933839315
5374243161656395
5289876274861450
5204213403549797
5212927194181876
5189787049587487
5069072912827221
5017958260342562
4867658161260067
4717477429172530
4613176254219264
4.40147036244377E+015
4408206071445086
4297885389460265
4109140591786722
3857037498431194
3814184747240553
3.645067294024E+015
3.37033562890963E+015
3.27373362513128E+015
3.17199884056966E+015
2945201550145652
2768896498589726
2.53929408378416E+015
2.46456181872527E+015
2.27834078037374E+015
2.09327930711611E+015
1.78043546575379E+015
1708354853225796
1428388092761033
1.21137889592375E+015
1.05144417510519E+015
788401949282973
604293706742234
357849461569203
430457846739195
696361469954885
1.01640143587051E+015
1.29572020407691E+015
1545035225478734
1.78114314150962E+015
2032709083387829
2.25954900488146E+015
2.60736737576706E+015
2.80308661643184E+015
2.97277532598141E+015
3.24604900851449E+015
3397500146476957
3761398956826454
3.93743969575068E+015
4168525671779324
4370827149594753
4541632793168593
4839274395101362
4940489080613521
5240850544788591
5369050697375635
5421921749928992
5651805529794108
5786639076815357
6014382776985118
5918471396534756
6124490303621797
6296643088995899
6312911105166163
6572721895910536
6604447937928120
6588188447971782
6775918626188165
6764212134468159
6838935873313121
6918306398747598
6940423397670902
6853720328260310
6849721533929150
6908774091578649
6967425917173639
6917692511344947
6749359469809565
6767383886048525
6640744030609886
6573352835741039
6626249466936172
6545574430771061
6460286712872138
6390295022755948
6309202202108477
6192418649967964
6023821295800885
5891980449867560
5750794873471653
5624675117082484
5430899853192769
5250860319937382
5135611486303496
4879705701537100
4699836692560226
4.46337067554446E+015
4.27402051668219E+015
4151925133265958
3.88528484516709E+015
3.67820868755326E+015
3537747839341036
3.23460682942618E+015
3.03256966424245E+015
2822799223028094
2577380681390326
2294327431484454
2.0574351037724E+015
1817677968181308
1.50678662980798E+015
1.28718546393727E+015
1.00187276734109E+015
704245659971993
438391488797073
506102416688135
925546100278092
1.16951518554849E+015
1.51488653303741E+015
1.80428328610401E+015
2158973785413736
2441225571210590
2743778272364571
3034684165296026
3.34871315039402E+015
3.65529022452094E+015
3831586749862937
4.07639140409805E+015
4.47501748376699E+015
4807207304526751
5035155633830728
5281384165791439
5522309392690354
5652513205549941
5922734503497613
6084510886524121
6326399575596642
6527976325228386
6728913608815701
6975022773781452
7149622582552234
7252985873973673
7383795048021984
7487286232652307
7695965318484170
7705216260593570
7744760840781036
7933215747181104
7850443262390268
8022357313774449
8056385433551976
8126257756673207
8346822384717516
8309639565787477
8385923601780844
8285697957084069
8335201155136769
8317023267047144
8166757272820352
7925405735225149
8033279393813290
8026603368309455
7849232540012815
7939201149356955
7719310092212777
7683116314098119
7377937539055019
7354533081828931
7439351857961940
7179200018660538
6966505086069662
6800883380562657
6532785109882489
6298902535686213
6162082380820272
5929717472702773
5544153552768035
5335372152369063
5102811141331273
4906827588034799
4677182542159603
4455176983961847
4.2974335001222E+015
3.86467698610863E+015
3.64819641453474E+015
3.31741341907272E+015
2.99962437363349E+015
2791064654796584
2.39116816925272E+015
2.06316471953048E+015
1.80347329578107E+015
1510708688213807
1.21345076590769E+015
826756270006407
504635907892912
610350729115061
1.03856959207736E+015
1.4175342224336E+015
1814156641829988
2.08419888928522E+015
2.46481760514304E+015
2.81885158598049E+015
3.21602820928205E+015
3.53790983740562E+015
3.87370624665597E+015
4187189554062713
4468000409706122
4807198778312824
5235444925159688
5568845468296905
5707984753350641
6118956790784008
6308426316641236
6506174796220334
6934685255698896
7218130711445350
7394452815429127
7540361914339880
7826740387676781
8018597253433209
8278015838337000
8393622772955764
8572170218774152
8735617739730100
8914582970030849
8858992055235189
9.03198893578794E+015
9.24105170124646E+015
9.32597279194658E+015
9.41549803816658E+015
9.48353722529378E+015
9.56760569460133E+015
9.7158765547695E+015
9.85221071544168E+015
9.57314773365304E+015
9.65823934863167E+015
9.66736239753219E+015
9.52395147930167E+015
9.5421975771027E+015
9.46836056450601E+015
9.47552258420361E+015
9.32989485035241E+015
9.22519294334463E+015
9.16559470800389E+015
9.01604491574685E+015
8912025105853135
8727517836500670
8494402621557710
8440065060209132
8259079117207988
8084973828844897
7906443435454361
7591152570695362
7335775411192359
7200208609773498
6967715808447114
6577138474724056
6355849118496060
5949532393866134
5724099297670240
5488545585544525
5255319529820529
4854280531610620
4514988374650735
4243496670828132
3.88058690129402E+015
3.50996943437106E+015
3.16929603075521E+015
2788736998394864
2417642063492064
2.13162169114004E+015
1.77244640330539E+015
1415189513604027
962575447357470
604060941102062
678876763057422
1.13436160553277E+015
1.61008171151801E+015
2.04533640621181E+015
2.36398659925754E+015
2.77774670864462E+015
3.18322786430982E+015
3622157357205610
3.98314020239251E+015
4442140402869430
4755700446201508
5117066971015067
5517006087628561
5881186263037606
6166669483912306
6586338259549902
6789850459742783
7217883451241505
7629409692580043
7915489748429542
8110518365766338
8449460947955269
8573534413002267
8747724963504616
9.04290248961285E+015
9.39955401812549E+015
9.76106548857579E+015
9.86687580339391E+015
9.75415925529596E+015
1.01024550941614E+016
1.02601900517871E+016
1.03746118426702E+016
1.0461408700434E+016
1.05235647999524E+016
1.07101183606471E+016
1.07782428099135E+016
1.1034711324799E+016
1.10086211101863E+016
1.08573660751442E+016
1.09451008164398E+016
1.09714468174702E+016
1.10195346640113E+016
1.09529449332514E+016
1.09603627393668E+016
1.07712513144945E+016
1.07123351762678E+016
1.07194971959654E+016
1.06349171538223E+016
1.04307143303014E+016
1.02889233927168E+016
1.00407253053392E+016
9.90200380476785E+015
1.00042331097372E+016
9.51107689627384E+015
9.2767765375952E+015
9.34106419059509E+015
9.08868825839394E+015
8672864805236842
8274034096433692
8235401821136279
7974985669203180
7623236713697825
7174885754414126
6828337789403458
6540228494639638
6176542839638284
6095560859771846
5656102741612667
5159536042579052
4900893343142501
4390156076564348
4019214613512211
3621492312519404
3.21661651804292E+015
2729138763054119
2.40498063581238E+015
1.94161501380549E+015
1.63901115536796E+015
1176856255738528
727349994467894
764737442532152
1312286637734578
1.83463660767955E+015
2291471149819340
2.68704484490287E+015
3191702920951985
3.6464570668939E+015
3995400898017690
4548402607025610
4980690179273264
5336045723269195
5764777864309825
6283990187530138
6524463525090992
6932212653660439
7416424868715694
7792695215471403
8162494165857495
8427531525738331
8834436559129131
9.04912662577863E+015
9.34149050129138E+015
9.71638812760505E+015
9.93031083500122E+015
1.01975223794331E+016
1.0431225903137E+016
1.08531029681813E+016
1.07829322275727E+016
1.12770263245678E+016
1.15037383528526E+016
1.1436551787118E+016
1.15581355976986E+016
1.16691469030114E+016
1.18050547529873E+016
1.20255426451063E+016
1.19771990121475E+016
1.21909511952652E+016
1.22997456849573E+016
1.23595144445766E+016
1.23497945607012E+016
1.23787836880487E+016
1.22709270818884E+016
1.22057015453567E+016
1.24396608554783E+016
1.21138742213767E+016
1.18638003669355E+016
1.20044828967098E+016
1.18222777051173E+016
1.17355661094928E+016
1.13923859989828E+016
1.13471118030372E+016
1.12852114899365E+016
1.08583892208153E+016
1.06615189412705E+016
1.04278154175667E+016
1.02807382273481E+016
1.00449031501628E+016
9.92059095112591E+015
9.54270914993824E+015
9.07044216059291E+015
8779698265726044
8384891929895833
8025665484777627
7570629973776167
7382644009142014
7001334669956207
6648954774620350
6327755243610831
5950385015258706
5435393167931620
4969392945821691
4.4928287446578E+015
4.11619177070329E+015
3.56664317833528E+015
3161963486779093
2.66763065579401E+015
2.19462188583715E+015
1.83996549138313E+015
1337498652312916
785647129563575
828956033199242
1.41981924776569E+015
2.06249967484428E+015
2547479249152845
3.08486093424886E+015
3.4526221195067E+015
4037349870532206
4552895921764462
4965504992271566
5473385977184605
6027999140624484
6290401900402276
6894774048312626
7451885392432741
7910561596780480
8001425458586820
8522863123641745
9.19373121395874E+015
9.41140545548224E+015
9.74085836157185E+015
1.01326378914584E+016
1.03910674355468E+016
1.05779620447985E+016
1.11035178711795E+016
1.12573307703994E+016
1.15528493450647E+016
1.19494035547497E+016
1.20441297914644E+016
1.22455189643898E+016
1.24947401974384E+016
1.27735473928093E+016
1.28759472220571E+016
1.32168252548072E+016
1.32434270422554E+016
1.32438533529517E+016
1.33830011642193E+016
1.3539712976174E+016
1.36912237976339E+016
1.37886784228048E+016
1.37282275660715E+016
1.36645367480464E+016
1.36761323989854E+016
1.34827578671502E+016
1.34366310498121E+016
1.34047430097299E+016
1.316140486429E+016
1.31031708231774E+016
1.29188340781034E+016
1.29460327005265E+016
1.27836935873809E+016
1.2507870566884E+016
1.22531072947836E+016
1.19943367021382E+016
1.18744581343427E+016
1.15973561817569E+016
1.13832629500822E+016
1.11970504379446E+016
1.08913856687078E+016
1.04026630864858E+016
1.01522481834876E+016
9.60955466711584E+015
9.46486481679647E+015
9.0720621412388E+015
8603120375324497
7998662965274889
7648781250619267
7391605059977940
6877602253466238
6497316059951516
5957342405822089
5584960012616505
5133326460971406
4543815503933576
3976421545819049
3498518729068823
3009420993434134
2.46853503441465E+015
2.01079671359874E+015
1.40282650341174E+015
881209787864376
932213599568000
1.50444192097841E+015
2192243072151874
2.77093426371797E+015
3364435488873036
3846823094148188
4422513058412435
4900270929525924
5483301963980210
6044505890784668
6650864646539709
7067472511377975
7425650232183316
8105504951978017
8581890102649466
9.03667835344708E+015
9.4908697692699E+015
9.92655930087391E+015
1.03444290453732E+016
1.07403011579441E+016
1.12174280892271E+016
1.14055163684284E+016
1.17761508877792E+016
1.22107320115728E+016
1.25430838303972E+016
1.29466295355013E+016
1.31411124751468E+016
1.34082387574394E+016
1.36724661269973E+016
1.38498113766522E+016
1.40992883961186E+016
1.42676811211515E+016
1.44660008570636E+016
1.45054772275397E+016
1.47622867909822E+016
1.46757457196362E+016
1.48951252039448E+016
1.48785843489289E+016
1.48474636681001E+016
1.49764652847961E+016
1.51214109215333E+016
1.4969473789377E+016
1.49502045459049E+016
1.4789741199823E+016
1.47562331790949E+016
1.45473409379149E+016
1.44397401181724E+016
1.42675958590122E+016
1.41863410403002E+016
1.39893854986162E+016
1.38296895117875E+016
1.35935986481845E+016
1.33570814738852E+016
1.31232926880421E+016
1.27042292735932E+016
1.26757517190813E+016
1.22112435844084E+016
1.16924234670287E+016
1.14973436924083E+016
1.10753813652247E+016
1.06089122013488E+016
1.0085743714867E+016
9.63845853232401E+015
9.25486416780612E+015
8906312542522906
8579673287028781
8069234437938028
7624532698214534
6925400208733793
6577070265012651
6079608313516835
5520587097477361
4803302298548772
4335852620071472
3.78128208770122E+015
3.29903942806281E+015
2.71026172542259E+015
2.13787993216152E+015
1585679687262615
917872507744949
1.05447950726275E+015
1.65322435398213E+015
2.37684412985752E+015
2.98295562540872E+015
3512382352912035
4.18777786282359E+015
4809526434714543
5327979924895469
6029576490200742
6594301743356519
7374186004927704
7698940967144245
8027183150856404
8687274106771299
9.27328078988566E+015
9.71996913745385E+015
1.02549890612924E+016
1.0708754166419E+016
1.12141881279353E+016
1.18084652385576E+016
1.21756892723382E+016
1.26135956195628E+016
1.2845082327646E+016
1.29431337877917E+016
1.34973376929632E+016
1.39424913220247E+016
1.435737689165E+016
1.44678766241273E+016
1.49316173995469E+016
1.50094617326886E+016
1.5195588982687E+016
1.53084760550635E+016
1.55091831308748E+016
1.57798904230162E+016
1.6024507500545E+016
1.60756647840992E+016
1.61041423386111E+016
1.6361719261307E+016
1.62246177413815E+016
1.65978953870493E+016
1.64659948576185E+016
1.62999042103455E+016
1.64001724861119E+016
1.61595627291283E+016
1.60505977151576E+016
1.57005966335071E+016
1.57868819184353E+016
1.56570276803467E+016
1.54199136710725E+016
1.52873310445277E+016
1.51217519700903E+016
1.47496679943721E+016
1.44491189534907E+016
1.41456709998745E+016
1.39388250500367E+016
1.36876427877851E+016
1.29846564496099E+016
1.28538643279895E+016
1.24349714378191E+016
1.20414866651474E+016
1.16721310778854E+016
1.09842361383588E+016
1.06627978733594E+016
1.0133831561408E+016
9.70069989398173E+015
9.41421910607772E+015
8766823682698215
8139328442621329
7728381983829739
7083058430434180
6597106867738079
5970839402466494
5327877610328360
4770578689501880
4195425876714954
3600082989351935
2.88469100991486E+015
2.35355051341247E+015
1689511920449967
990243011546414
1.20739715402044E+015
1.82770479575795E+015
2.51160946716736E+015
3236567858629095
3887237348156075
4495540080686180
5194826042017585
5770720635416048
6344833250104037
7051213021421637
7730419748957983
8323281508068620
8671841659565756
9.32818960756726E+015
9.93824021395214E+015
1.06054164536393E+016
1.12341394685215E+016
1.16669300873908E+016
1.2162047330057E+016
1.26295396396039E+016
1.30215749559083E+016
1.36520032135756E+016
1.37299328088567E+016
1.42488381883756E+016
1.47414828290034E+016
1.50618126861925E+016
1.54717530517409E+016
1.56950545944553E+016
1.57963460158928E+016
1.62767129084676E+016
1.65731693666647E+016
1.68069581525078E+016
1.71407594276995E+016
1.71640359917167E+016
1.7185010477974E+016
1.73174225802403E+016
1.77028074496826E+016
1.76795308856654E+016
1.74371306237573E+016
1.76175453104255E+016
1.76321251362384E+016
1.77879843268005E+016
1.75873625131284E+016
1.74195666230704E+016
1.71685548850973E+016
1.71779337204156E+016
1.70078357525976E+016
1.67329506156326E+016
1.66907458567003E+016
1.64422067207657E+016
1.62931685013442E+016
1.59820469551949E+016
1.56110713872871E+016
1.54765277315393E+016
1.51537252723117E+016
1.46704594670022E+016
1.43829555334271E+016
1.38400914927769E+016
1.33668013577605E+016
1.30918309586562E+016
1.27182122644314E+016
1.21044953860584E+016
1.16297557946746E+016
1.10806676178586E+016
1.05615064519219E+016
9.98590174979688E+015
9.49939598319561E+015
8811671567947474
8202558845094427
7679791090667090
7054794031270437
6547450197834718
5774983742378906
5138962288376304
4.49213812132982E+015
3.83821161808322E+015
3238554466473786
2.53296763305128E+015
1.80801776780347E+015
1087493007583114
1.2513497868075E+015
1987426361228359
2.74735928221337E+015
3.42810925447027E+015
4157168754830272
4879773911248506
5552500716201310
6413162328504714
6850642365033128
7582396148993652
8290779580583795
8938626893301364
9.56376889833476E+015
1.0168959562782E+016
1.06448928241154E+016
1.14031290285292E+016
1.18667845418095E+016
1.23686374934771E+016
1.29063858057719E+016
1.34182144277325E+016
1.3951188060229E+016
1.47482185380047E+016
1.49645285853001E+016
1.54132632242105E+016
1.60568218513234E+016
1.63104767156134E+016
1.66752281473555E+016
1.69156673800606E+016
1.72384698392882E+016
1.75625512306046E+016
1.78465594164702E+016
1.79120407394196E+016
1.81335517772097E+016
1.86847715075072E+016
1.85353922395286E+016
1.88323602705613E+016
1.88396928145374E+016
1.87953565021237E+016
1.89176224098184E+016
1.88804481171023E+016
1.90927508438526E+016
1.88452348535891E+016
1.89977688207201E+016
1.88458316885639E+016
1.88573420773636E+016
1.86155386504304E+016
1.8408863224871E+016
1.83020297643818E+016
1.80673030950069E+016
1.78604571451691E+016
1.76283736021111E+016
1.72696757822563E+016
1.70319649380074E+016
1.65441802393173E+016
1.62385154700804E+016
1.58835691843529E+016
1.54679162554743E+016
1.49641875367431E+016
1.44646366628355E+016
1.39965475183138E+016
1.35446581802509E+016
1.32798339757182E+016
1.24978096344516E+016
1.20792577928383E+016
1.13870144842096E+016
1.08074024615395E+016
1.01586428439319E+016
9.36553442456189E+015
8966592874977708
8225340888703935
7551914934209224
6951942312684542
6223036284175205
5408586751349173
4845933368177344
4041928447410314
3.43313972068644E+015
2711336028377227
1.98254936686285E+015
1.13376477055797E+015
1.32406133916599E+015
2189403842914611
2.94595185697111E+015
3660218376170000
4512583982323683
5271058920727398
5917917192629584
6675377511576139
7225343888426505
8162749952275266
8920210271221821
9.5583121214223E+015
1.03312134137883E+016
1.09771593808005E+016
1.14283666217493E+016
1.20246047615745E+016
1.29470558461975E+016
1.32995295298866E+016
1.41145503190456E+016
1.45035161983367E+016
1.52568924608129E+016
1.54712414789053E+016
1.59909994798169E+016
1.64262627007246E+016
1.70516604921758E+016
1.77008464204797E+016
1.78278870079728E+016
1.82666459765901E+016
1.82916277833925E+016
1.88261361343955E+016
1.89287917500611E+016
1.9303433589957E+016
1.96581240892667E+016
1.98875645060077E+016
1.97456883062838E+016
2.01405372731837E+016
2.0260671627397E+016
2.02588811224726E+016
2.04323043137216E+016
2.03550568155546E+016
2.05092960254708E+016
2.04207939249219E+016
2.030279112419E+016
2.01384909818415E+016
1.98888434380966E+016
1.9678757526967E+016
1.96205234858543E+016
1.94567349163413E+016
1.93672096701213E+016
1.90707532119243E+016
1.8802774308239E+016
1.86288395441545E+016
1.80445381038252E+016
1.77696529668602E+016
1.73955226997999E+016
1.69750950911229E+016
1.64968597520295E+016
1.61995506724399E+016
1.55100357522673E+016
1.49835420423545E+016
1.45855383763021E+016
1.4062284627681E+016
1.342998060295E+016
1.28593211049019E+016
1.21034722403874E+016
1.14247856119005E+016
1.08337484625699E+016
1.02505554300511E+016
9.63010284267681E+015
8907335688193992
7992327988328083
7434884121864866
6704750318550226
5863375002146788
5042675754513209
4438354763886412
3555593205087556
2850893097913323
2.06259346319746E+015
1.23805741929731E+015
1.30393094808738E+015
2271596545158499
3.08733353628731E+015
4003227962401496
4792252325301046
5619712860577718
6437965084814618
7148386281533005
7793743939784265
8689064611695698
9.2660335080488E+015
1.01635027858695E+016
1.10159536541625E+016
1.16781846897727E+016
1.22604398387598E+016
1.29106489127347E+016
1.36560105341207E+016
1.41664749618532E+016
1.47352586928377E+016
1.5439950273798E+016
1.61549585736084E+016
1.64884188002431E+016
1.69866054799226E+016
1.74879468587546E+016
1.8214891858061E+016
1.84265977498365E+016
1.89608503144218E+016
1.95367108029645E+016
1.97143971011764E+016
2.00361764147329E+016
2.05474082017188E+016
2.06281514475953E+016
2.09678358103957E+016
2.11880679160969E+016
2.14244145661178E+016
2.13266188923898E+016
2.16250363797898E+016
2.15268143953656E+016
2.18826985646249E+016
2.17552316664355E+016
2.17018575672605E+016
2.16677527115576E+016
2.17618821132975E+016
2.13339514363659E+016
2.13582511460542E+016
2.10865207082417E+016
2.08879451859118E+016
2.06901370228352E+016
2.05824509409534E+016
2.03653735344047E+016
2.01123155050895E+016
1.97027161880982E+016
1.93309732609371E+016
1.90149917728501E+016
1.86357457774343E+016
1.80031859662855E+016
1.73786407962269E+016
1.70281281417408E+016
1.64769936735826E+016
1.59862248000185E+016
1.5466807847664E+016
1.48231639584118E+016
1.41999829825813E+016
1.35123438294724E+016
1.28350213952137E+016
1.21666514855769E+016
1.15674291708777E+016
1.09202042717767E+016
1.02727235862579E+016
9.28769009142012E+015
8736470361122670
7932576281136676
7025225121376060
6334235166194374
5537716261254121
4789293729068824
3858145906241537
3.09079517914115E+015
2.2352578214071E+015
1.33128304236107E+015
1.38994339416999E+015
2411579925390881
3269777461869753
4.14282766300722E+015
4969103054548218
5948099989926614
6832004061391515
7670412255348805
8291393467986445
9.07641051034091E+015
9.95554842822134E+015
1.07827617032942E+016
1.15005836537001E+016
1.23002572577928E+016
1.30075919650701E+016
1.3867972212314E+016
1.44365854190199E+016
1.50023849751303E+016
1.573239941145E+016
1.62600867913124E+016
1.70936094646903E+016
1.7498689888301E+016
1.81398611755147E+016
1.88180362311661E+016
1.93587687183349E+016
1.96937636634762E+016
2.04473104502309E+016
2.01848735855974E+016
2.08103566391878E+016
2.12089571402149E+016
2.1415547303635E+016
2.19465599069285E+016
2.2030287327679E+016
2.25890953883704E+016
2.25051121812021E+016
2.27677195701141E+016
2.30358689980778E+016
2.27373662485385E+016
2.30651991739823E+016
2.29593888591641E+016
2.28308988153036E+016
2.30692064945273E+016
2.29683413837861E+016
2.28066843677546E+016
2.28391692428116E+016
2.26156971758186E+016
2.23122492222024E+016
2.18786059819406E+016
2.18942942155639E+016
2.16624664589237E+016
2.11412590016448E+016
2.10588105129831E+016
2.05140707052692E+016
1.99298545270793E+016
1.95206815207842E+016
1.91165389807053E+016
1.83333209694892E+016
1.82163413144284E+016
1.75289579477373E+016
1.68614406594931E+016
1.6362401358421E+016
1.58830576115174E+016
1.53418988136523E+016
1.42577054508584E+016
1.37951583453884E+016
1.29522568366922E+016
1.22462010615038E+016
1.14974289545476E+016
1.07096920499508E+016
1.00269128387796E+016
9.09994286077588E+015
8332455714252688
7638114956998198
6713915998520369
5830455290179604
5146235148854937
4095080865023219
3284706862453679
2.34924477537998E+015
1.37155235073222E+015
1.39525522544571E+015
2534135724359102
3.50002786893367E+015
4.43442417926666E+015
5227285338432780
6120372142295676
7190599566679217
8085425718182960
8897104231483135
9.7296037591899E+015
1.06429317949124E+016
1.15364790143273E+016
1.21344223969377E+016
1.30069951300953E+016
1.38555239399824E+016
1.46026760662928E+016
1.5323567453712E+016
1.58940564274815E+016
1.68017571620131E+016
1.72981533367682E+016
1.79297752643851E+016
1.85538088616082E+016
1.9175455118932E+016
1.98169674547028E+016
2.0368442971418E+016
2.07493942096189E+016
2.14481174408312E+016
2.15994577380127E+016
2.21070232530105E+016
2.25950637381184E+016
2.27673785215571E+016
2.31784272949158E+016
2.32559305795005E+016
2.35451397558607E+016
2.38179786014836E+016
2.40139962596358E+016
2.41973951211779E+016
2.40441790569328E+016
2.43443870492572E+016
2.43862507596325E+016
2.43430228550291E+016
2.41676386345771E+016
2.423158523902E+016
2.4177529042731E+016
2.38771505261281E+016
2.3834689980778E+016
2.36401217789932E+016
2.30827631746692E+016
2.29999736374505E+016
2.27470861324138E+016
2.25131268222922E+016
2.21633815270594E+016
2.17654631231463E+016
2.12241338010027E+016
2.05221706084986E+016
2.01066029417593E+016
1.93832389523017E+016
1.90428724923872E+016
1.85085346656626E+016
1.79696779455575E+016
1.73172520559618E+016
1.65783703571594E+016
1.60940814061788E+016
1.50491086274432E+016
1.42588138586687E+016
1.37092993711564E+016
1.2916361476065E+016
1.21886491175052E+016
1.13736283283462E+016
1.03895327170402E+016
9.69805676766476E+015
8899491571382334
7988499718275437
7179489909934013
6225142259014856
5297080925628679
4404463063531697
3405804678840603
2494659353883044
1.47030296041985E+015
1.56907062253532E+015
2715462715917273
3638229270455582
4695283694323894
5636049086459386
6583737764302559
7517554292088594
8572681791609695
9.34728832676086E+015
1.02258294096665E+016
1.10972937350138E+016
1.19870041581621E+016
1.2794010306231E+016
1.38216748706973E+016
1.46719089233696E+016
1.53370388717146E+016
1.62584668106666E+016
1.66857153904841E+016
1.77153409841534E+016
1.84426270320169E+016
1.88666356505426E+016
1.95193173265561E+016
2.00165661227038E+016
2.08273238049E+016
2.13721488747531E+016
2.16978502467154E+016
2.2495477559466E+016
2.28168305623262E+016
2.30106314048577E+016
2.3813459708103E+016
2.39300130524675E+016
2.41243254678345E+016
2.47506611428175E+016
2.47449485794873E+016
2.48771048953359E+016
2.51989694710316E+016
2.53942197699304E+016
2.55460716399474E+016
2.54712114816797E+016
2.55470947856185E+016
2.54657547047672E+016
2.5683855256987E+016
2.56133434678213E+016
2.52065578014255E+016
2.52351206180766E+016
2.5132123953854E+016
2.48660208172324E+016
2.45294911535845E+016
2.44987967834519E+016
2.39730704327923E+016
2.35371251147706E+016
2.31697305567115E+016
2.26845889843384E+016
2.21419807301059E+016
2.17049270042738E+016
2.12336831605995E+016
2.07243271406773E+016
2.00072725495247E+016
1.95561505707152E+016
1.86921040514833E+016
1.80247572875176E+016
1.75215401416219E+016
1.656796837617E+016
1.59393306234271E+016
1.51386338736632E+016
1.45243201603155E+016
1.35637568994445E+016
1.27721831985811E+016
1.19271501364036E+016
1.09529449332514E+016
1.03881685228121E+016
9.38642364867989E+015
8326061053808402
7487507914214376
6602043545601068
5637421806901427
4627773132460087
3571878273685671
2594765631584858
1550884208231774
1.68292115708539E+015
2.75329352710567E+015
3844913222228828
4897747170203912
5988667715785163
7009451625613487
7916061004762566
8848760598524333
9.69652204915813E+015
1.07118236034322E+016
1.18339586181955E+016
1.24741067597382E+016
1.35446581802509E+016
1.44399106424509E+016
1.52279033334654E+016
1.59967120431471E+016
1.69767150717688E+016
1.76169484754507E+016
1.84067316713896E+016
1.92376112184505E+016
1.9861815339952E+016
2.06027433300966E+016