/*--------------------------------*- C++ -*----------------------------------*\
| =========                 |                                                 |
| \\      /  F ield         | OpenFOAM: The Open Source CFD Toolbox           |
|  \\    /   O peration     | Version:  v1806                                 |
|   \\  /    A nd           | Web:      www.OpenFOAM.com                      |
|    \\/     M anipulation  |                                                 |
\*---------------------------------------------------------------------------*/
FoamFile
{
    version     2.0;
    format      ascii;
    class       volScalarField;
    object      dnp3_s;
}
// * * * * * * * * * * * * * * * * * * * * * * * * * * * * * * * * * * * * * //

dimensions      [0 -3 -1 0 0 0 0];

internalField   nonuniform List<scalar> 
6400
(
113374395581912
184079336987826
249035300381798
315223710438011
400233253190456
466296673224277
514552393175858
591208436098396
649210562706009
721727296418498
761662171591067
859835640981181
888735361023589
936090815003072
1.01825204909207E+015
1.06210553037209E+015
1.15385496302572E+015
1.15884330355904E+015
1.2470907635132E+015
1264285336863973
1.35757180898216E+015
1.37934371963947E+015
1.38018261663661E+015
1420562276123100
1.49047786612634E+015
1487302443935821
1.54912746357067E+015
1560691855732583
1.61044576689852E+015
1.64523465646447E+015
1763665517772097
1.68347484709919E+015
1721405377768530
1747658912652174
1.78395106059555E+015
1.7282910893625E+015
1.8140950506807E+015
1.7665932119903E+015
1.77743131077885E+015
1.74321669969417E+015
1841575965063512
1.76136277366585E+015
1821251010971735
1742985862265422
1735621585270396
1.7232914884668E+015
1.75159440930319E+015
1736376029549703
1661123027779429
1.71192415264649E+015
1.63319169890151E+015
1.69370488631935E+015
1.58882587113331E+015
1.56373778375576E+015
1517204336229845
1490708703555080
1.44232292641804E+015
1.42445836150579E+015
1.34988661165937E+015
1.31076811275918E+015
1.25567678982621E+015
1213951517035584
1.16297022637048E+015
1109466614532760
1.07254951647742E+015
991717005148987
976363501046972
867594030659427
865527754163116
780382524044019
722470480335427
657734657025940
575190570616095
526963564588576
452725121468535
423814704081869
327210366189089
258081875516055
199899583110398
114104630082106
172064530330803
269515084456268
397194644402830
520039567762519
610970372071287
725921781404197
799136657584105
913536309160507
1052629935431240
1.08914729062217E+015
1188519988605513
1.29148474218735E+015
1.42897939700044E+015
1.44849360500102E+015
1.56801672145929E+015
1.69884524174478E+015
1.75975817202703E+015
1.85392858259187E+015
1.88943813534999E+015
1.98359728555245E+015
2.0276872344424E+015
2.1477452181136E+015
2.14943427247026E+015
2.20496474953596E+015
2318987178972713
2344835340810759
2.41364178511979E+015
2.42498097003415E+015
2.56851680926289E+015
2535090423544643
2602179662591073
2.56609020117049E+015
2.73545168151253E+015
2632520709017828
2.69017376439173E+015
2.6960516735529E+015
2.73976440030319E+015
2735367228794694
2795497563891696
2.76930596100113E+015
2.80768127598438E+015
2817967617016428
2790880815316833
2.73478732013224E+015
2.68355267131364E+015
2.66656078448566E+015
2.71532378376236E+015
2.61960507337059E+015
2632802218077271
2602753941072337
2.57623578767282E+015
2.5449150897192E+015
2509670155476950
2422458648861542
2.34588818469308E+015
2.27905793398133E+015
2.22266603919373E+015
2.15525587981954E+015
2131400802122347
2.02087471520388E+015
1.93781265212466E+015
1863471739706980
1.7806405140565E+015
1.67369522237415E+015
1655701163294559
1.58002026775393E+015
1.46886360054231E+015
1372407336414799
1272533552305650
1.23419764859072E+015
1.11448310597203E+015
1.00029740128081E+015
878336416367768
794880240605328
715905689069219
598127928779502
499703353308365
385129166115107
321432674253083
166948384684488
234231864981934
379747275916678
511917468379473
693981763519807
783816934569223
926941770571178
1.05749441197841E+015
1202820648825212
1.36208158411443E+015
1.43341034959607E+015
1.54988190784998E+015
1.67920153957685E+015
1.85442403853649E+015
1.91881079061226E+015
2.12264587037367E+015
2.24421274260349E+015
2.3145449660147E+015
2413033725551394
2530349810983625
2661043206920582
2687032123288350
2864191404576951
2.84051086249661E+015
2932896505624583
3067294560783808
3.12553315500135E+015
3.21792442831051E+015
3378632320165270
3.36845295257581E+015
3360396163294559
3424163595439563
3.53113703802786E+015
3.54405830385629E+015
3.56892118398629E+015
3603090753621466
3.65221971467544E+015
3680410031888050
3699197946515268
3.59049603830199E+015
3.63883114380833E+015
3.61680024481633E+015
3.67481363178632E+015
3.672150556084E+015
3.67848450992146E+015
3.59316474418551E+015
3.53813535324561E+015
3.54881580696088E+015
3493105164097127
3436538733692673
3442292778867685
3427012467121125
3347300361849276
3313547425622073
3214298591624888
3115128580164345
3.04625457368105E+015
2.90645717476171E+015
2.9109050179009E+015
2.83805610349827E+015
2.71342078252053E+015
2546947585128378
2.51865029447318E+015
2406975650592183
2.22555995232481E+015
2.16176999945505E+015
2.09459067750959E+015
1944827857885976
1.82840697126277E+015
1.67679182202802E+015
1627443283907682
1.50447449656184E+015
1382271413857678
1.17568880567611E+015
1.1280912539055E+015
943218624388166
799919252769356
694308314028760
520611594171307
399037965724062
236301519586958
284247579573153
459833788237587
671168269342555
855613005089538
1.02024513323293E+015
1.17615611071478E+015
1.34227460669203E+015
1.49206557722159E+015
1.72174318863986E+015
1.85098399783009E+015
1963035863850742
2143488801134825
2.24349770959251E+015
2.48379384273296E+015
2.60004019373931E+015
2.75263499450092E+015
2.88622230356895E+015
2.99901172332534E+015
3195555718447179
3.26239159934011E+015
3.46073162226119E+015
3545387026616861
3.58029978016897E+015
3.73210072538295E+015
3821136410703552
3.97152418043913E+015
3908190272245672
4044232340312044
4157911328696273
4.16865371440461E+015
4.34021659559149E+015
4.36116649979523E+015
4350429744268078
4.47439507368435E+015
4466664834912048
4516007742851198
4568419099538276
4583023789542173
4525770477032677
4523129922055103
4562124556969132
4600854573367285
4568013726492678
4.45685705928106E+015
4468759262314303
4385134181116197
4340633228999465
4375562873095139
4322290098686166
4265971396254021
4.21975323887469E+015
4.16620458558746E+015
4089087993843674
3.9777567910152E+015
3890697299291890
3.79746712898559E+015
3.71418548884001E+015
3586228360960836
3.46734145497691E+015
3391238295847122
3.22225403764474E+015
3103479735284598
2947332290192815
2.82229722635066E+015
2.74167303172622E+015
2565600375407064
2.42886016487327E+015
2.33610855996803E+015
2.13593309797938E+015
2002520324528202
1.86400097673873E+015
1.70194184139865E+015
1.51503108629095E+015
1.35860213213972E+015
1200281437109037
994988140419714
849977193719491
661574440596741
465040016782924
289486463169385
334198547080699
611173058594085
772275063132064
1.00033681254913E+015
1.19143642246134E+015
1.42565195991783E+015
1.61203347799378E+015
1811820457480398
2003916609463039
2211281812829862
2.41372623783762E+015
2.53014149427964E+015
2.69179525657412E+015
2955023117696794
3.17438060699589E+015
3.32490350108E+015
3487497503633025
3.64658953348658E+015
3732568030421629
3.9110053628401E+015
4.01783242071749E+015
4177560661045386
4.31066940471236E+015
4.44335588479018E+015
4605871064806558
4721165915191989
4789420601744513
4875798841543969
4944137980814326
5081936665411621
5088045412001532
5114158192355455
5238602087172780
5183944288191349
5297465631502289
5319935684627020
5366075019469711
5511722176644274
5487168956479666
5537542187576376
5471359407701352
5504048239683862
5492044693389216
5392818380116786
5233444841203786
5304677893605216
5300269461734340
5183144802462530
5242554474367358
5097352101506715
5073451982360013
4871930907067225
4856476059703809
4912485102170567
4740697013736137
4600246513798889
4.49088024420533E+015
4.31384482690288E+015
4159403326711320
4069055809173718
3915616481233775
3.66101405769243E+015
3.52314781092087E+015
3369578988813586
3240163644006500
3.0885203438658E+015
2941921686070322
2.83775770389526E+015
2.55199222747359E+015
2409041927088494
2190613417685565
1.98076530441446E+015
1.8430454423538E+015
1.57897868423399E+015
1362385613898632
1.1909015552484E+015
997578023766588
801287386798248
545938401231265
333230155916216
403037646440626
685806740433585
936051403734749
1.19795617227804E+015
1.37627527089154E+015
1.62761218934335E+015
1.86139420284829E+015
2.12366493316886E+015
2.33621553341062E+015
2557954589352595
2764959461123331
2.95038947857836E+015
3174374976814696
3.45716208738746E+015
3677319062415367
3.76919798923634E+015
4040578352720475
4165692239099274
4296273031412454
4579234677602072
4766404421044461
4882836568030042
4979185858714966
5168292384486323
5294982721598002
5466286614450191
5542626241189915
5660527865465787
5768458438856191
5886635942010318
5849927160658964
5964163536980891
6102215579731683
6158292184372710
6217409086855716
6262337932742802
6317851519264939
6415760370139178
6505786967349016
6321511137037697
6377700345302498
6383724639174577
6289024991577989
6301073579322144
6252316210226634
6257045562425275
6160882067719583
6091743442720409
6052388476210294
5953635098157726
5884946887653661
5763109766726776
5609174982842214
5573293838125624
5453781982029738
5338813682153261
5220923318239767
5012724848056993
4844089661088322
4754569780185482
4601045999527707
4343133029447318
4197007306871701
3928701022316681
3779839031683279
3624294015978704
3.47028603973869E+015
3205464837339569
2981417407110160
2.80214117769455E+015
2562498145572003
2.31776542965473E+015
2.09280591007273E+015
1.84150840288925E+015
1596460396825397
1.40759033866397E+015
1.17041332590215E+015
934503103907814
635624935497295
398884261777606
448287975673596
749061826090403
1.06319778552273E+015
1.35061290503273E+015
1.56102966660391E+015
1.83425109933681E+015
2102005626135320
2391847353737722
2.63021796491159E+015
2.93331313903256E+015
3.14036868243399E+015
3378992651761356
3643087560787112
3.8835694899068E+015
4.07208484665332E+015
4.3492079949501E+015
4.48359478974694E+015
4766241145789985
5037987471051397
5226896940481144
5355681704995079
5579498297795745
5661428694456004
5776453296144370
5971370168902629
6206880648032552
6445600330440125
6515470878993850
6441039883677150
6671032785241994
6775191137235862
6850748168790335
6908063413292909
6949107434159680
7072295798571891
7117280946270865
7286636796431710
7269408441993804
7169529027703467
7227463592136814
7244860852010385
7276615073915543
7232643358830564
7237541616464869
7112664197696003
7073759645680994
7078488997879633
7022637600486164
6887794761013019
6794164847842312
6630270273434662
6538667225491945
6606173097946351
6280523417982812
6125806038912999
6168257605076987
6001604241886796
5727020305306199
5463657319834995
5438146968868280
5266184344816995
5033911219870664
4737848142054575
4509009427633448
4.31875997508075E+015
4.07860459647002E+015
4025129135538249
3734938336702138
3407036584263058
3236245037899055
2.89898592432409E+015
2654039261521643
2391408199604991
2.12405341567089E+015
1.80215343637913E+015
1588099577759943
1.28212175087027E+015
1.08230099029652E+015
777122649135670
480296681768490
504985026281632
866552447139488
1.21147986749368E+015
1.51314497559268E+015
1774357231849738
2107602026237045
2407893370125967
2638314165461163
3003482087189294
3.28893790364558E+015
3523592595234793
3.80670062613532E+015
4.14955613981201E+015
4308349770062554
4577601925057303
4897345544953729
5145811070999214
5390003289522357
5565017471778003
5833712238835053
5975480201170496
6168539114136430
6416098181010510
6557359427038953
6733809305497759
6888132571884351
7166713937109037
7120377545924737
7446646545819048
7596353063630780
7551987235862580
7632273619615692
7705578578694621
7795323666845016
7940920152388879
7908997025048055
8050145667452721
8121986779422547
8161454349556442
8155035943001142
8174178559043260
8102956767004208
8059885880909445
8214378052731704
7999248829505447
7834115615236246
7927013604852400
7806696632846509
7749437690155823
7522822897304295
7492926635191462
7452051519760352
7170204649446128
7040203765795401
6885880499408808
6788759873901011
6633029062217202
6550941020483654
6301411390193476
5989555654142639
5797566475602587
5536860935652525
5299650141803566
4999173001935412
4875038767083475
4623245803955374
4.39055604560107E+015
4.17845585985442E+015
3929264040435567
3589195466447364
3281477913570338
2.96678456620032E+015
2.71807694236371E+015
2.35518924401707E+015
2087963954250309
1761537309282709
1.44919174746844E+015
1.21499873073671E+015
883200892914941
518792482629187
547390987977991
937560292293363
1361946459765901
1682196795969324
2.03705022575947E+015
2.27989683097847E+015
2.66601465691034E+015
3006449192675822
3.27891055094822E+015
3614283553824915
3.98051557979774E+015
4.15379003606603E+015
4552879799457028
4920761468518189
5223642695753984
5283643536683642
5627968527650622
6070968074133523
6214706599885065
6432256801022531
6690963626650549
6861614418484831
6985027990144594
7332072358625793
7433640827272789
7628782907278600
7890642634372378
7953193947380588
8086178827061411
8250749023211726
8434855948087378
8502474424165560
8727569068096097
8745135233405333
8745416742464777
8837301299466936
8940784029718143
9.04083234944415E+015
9.10518532043279E+015
9.06526733580379E+015
9.02320988232302E+015
9.03086692873987E+015
8903174419376572
8872715139144851
8851658261498523
8690972890368520
8652518752848622
8530794235545515
8548754513537972
8441555863702118
8259419502242567
8091189688319494
7920313689237659
7841153341722318
7658172453084438
7516798603432219
7393835446267563
7191993450647010
6869271464901677
6703913043384922
6345552010714121
6250007835939203
5990625388568522
5680965423181341
5281819357978453
5050779242712483
4880956087512964
4541540614542669
4.29042327315723E+015
3933858268285675
3.68796010486231E+015
3.38972940728851E+015
3.00045304970969E+015
2.62578138213477E+015
2.31020409631809E+015
1.98723438260045E+015
1.63006694834169E+015
1.32780504103667E+015
926339341183970
581896116412025
615575860283772
993439840592778
1447620926916751
1.82975258456691E+015
2.22166386694212E+015
2540202628064126
2920352461935808
3.23583403467227E+015
3620831454547556
3991415610579368
4.39181720618737E+015
4666919119437344
4903437401000072
5352371158456030
5666946272021084
5967260136634762
6267179888565219
6554882147315855
6830817327381778
7092226639980447
7407291579308934
7531493376335135
7776237352614788
8063207687810871
8282672150552550
8549148626221192
8677573059139039
8853966635785956
9.02844595082866E+015
9.1455537195569E+015
9.31029282114288E+015
9.42148889962283E+015
9.55244691407566E+015
9.57851465298007E+015
9.74809571038847E+015
9.69094937132156E+015
9.83581393331088E+015
9.82489138180449E+015
9.80434122046516E+015
9.88952586185258E+015
9.98523894206316E+015
9.88490911327772E+015
9.8721849037909E+015
9.76622489381659E+015
9.74409828174438E+015
9.60615884261736E+015
9.53510595601398E+015
9.42143259781094E+015
9.36777697108112E+015
9.23771978561851E+015
9.1322664919512E+015
8976366774831725
8820185548652810
8665805980454326
8389082575021963
8370277769851178
8063545498682203
7720948973340203
7592130427739136
7313492760702561
7005465547860149
6659997630111832
6364638324944349
6111336473257636
5881174666257126
5665482424911982
5328420367678629
5034767007411370
4573103410287405
4.34308798799781E+015
4.0145950665339E+015
3.64545223688643E+015
3171801984011388
2.86312730033226E+015
2496923425265376
2.17848037722358E+015
1789688215226998
1.41172289165659E+015
1047084206960215
606105895524113
696312658531994
1.09168650233835E+015
1569519979836712
1.96975830019024E+015
2.31935877093118E+015
2.76534794362536E+015
3.17591201627925E+015
3.51826644383013E+015
3.98155716331768E+015
4.35446658418049E+015
4869453627344127
5083901598646533
5300652314055182
5736535311515368
6123497664625567
6418462857109830
6771756726710659
7071394969581675
7405152110457168
7797575739320559
8040067643124665
8329233748984404
8482093168261894
8546840251933760
8912802029209520
9.20675378907979E+015
9.48071840572961E+015
9.55368555393721E+015
9.85991110879919E+015
9.91131466305346E+015
1.00342215184062E+016
1.01087651173467E+016
1.02412995825324E+016
1.04200578352787E+016
1.0581587733587E+016
1.06153688207201E+016
1.06341736258909E+016
1.08042613996063E+016
1.07137280860895E+016
1.09602174185377E+016
1.0873118515546E+016
1.07634425859871E+016
1.08296535167681E+016
1.06707698036185E+016
1.05988160880249E+016
1.03676971502223E+016
1.04246745838535E+016
1.03389269243472E+016
1.01823515854851E+016
1.00948022679983E+016
9.98546414931072E+015
9.73976304222896E+015
9.54129915532172E+015
9.34092100681027E+015
9.20433281116858E+015
9.03846767334483E+015
8574259234323497
8487892254886418
8211281453077833
7951448591212043
7707549142110721
7253306123793671
7041048292973731
6691751852016989
6405738647623011
6216564559677388
5789064902007411
5374706087232230
5103342614291660
4677211090650575
4.35631891379162E+015
3.94277084510764E+015
3.51819888165587E+015
3.15019334860855E+015
2.77039821615177E+015
2377270814639769
1904870461988652
1.55413832482875E+015
1115648553478126
653894873455139
797289958154159
1.20690253018713E+015
1.6585106237078E+015
2.13722803965281E+015
2.56688968689931E+015
2968574963818375
3430339904203740
3810624862423954
4189733112775697
4656182363910192
5104688227595796
5496177246381838
5726344683563535
6159756031481812
6562595495544590
7003157173572716
7418326734439095
7704114731585518
8031059353222493
8339762187807569
8598637918871252
9.0149335159754E+015
9.06639337204156E+015
9.40904619919545E+015
9.73435806828766E+015
9.94588397555305E+015
1.02165830871133E+016
1.03640375324495E+016
1.04309240849731E+016
1.07481284931534E+016
1.094388989309E+016
1.10982694612885E+016
1.13186910548323E+016
1.13340614494778E+016
1.13479116952024E+016
1.14353484090654E+016
1.16898325988018E+016
1.16744622041562E+016
1.1514396152957E+016
1.16335307869132E+016
1.16431583967461E+016
1.17460781088785E+016
1.16135999455046E+016
1.15027979797079E+016
1.13370454455079E+016
1.13432386448157E+016
1.1230916530098E+016
1.10493994885692E+016
1.10215300916843E+016
1.08574103100291E+016
1.07589947428479E+016
1.05535494312665E+016
1.03085802477393E+016
1.02197359885791E+016
1.00065773287689E+016
9.68745865898447E+015
9.49760894929618E+015
9.13913531300161E+015
8826603955208106
8645030611867442
8398316072171690
7993055630197702
7679567141602098
7316983473039654
6974161740450098
6594068208390306
6272810069754076
5818679655060804
5416459510928799
5071256211696358
4658547040009512
4323528738547715
3.81343995301838E+015
3.39345095705434E+015
2966328521524021
2.53451614506338E+015
2.13853987186982E+015
1.67261422758589E+015
1193902441822061
718112720095251
826313542182722
1.31237271439801E+015
1.81418513357972E+015
2.26371006006051E+015
2.74513559315736E+015
3222299079094254
3.66652600507633E+015
4234853384823204
4523737981623500
5006942651976035
5474714995689912
5902513052962897
6315317937729955
6714948198515085
7029224912477130
7529916925602256
7836086178652345
8167478643428518
8522574171009783
8860553947776920
9.21249657389242E+015
9.73880591142685E+015
9.88164360818818E+015
1.01779600441578E+016
1.06029261202928E+016
1.07704240106613E+016
1.10112831619206E+016
1.11700542714464E+016
1.13832129312566E+016
1.15972161182451E+016
1.17847574536459E+016
1.18279972451763E+016
1.19742693524629E+016
1.23382605663225E+016
1.22396197918937E+016
1.24357190027016E+016
1.24405609585241E+016
1.2411284016342E+016
1.24920208145902E+016
1.24674732246068E+016
1.26076647362094E+016
1.24442205762968E+016
1.25449445177655E+016
1.244461468898E+016
1.2452215433585E+016
1.2292543495069E+016
1.21560679030511E+016
1.20855217327547E+016
1.19305228446254E+016
1.17939346489837E+016
1.1640681117023E+016
1.14038193944078E+016
1.12468499428624E+016
1.09247472770479E+016
1.07229052814273E+016
1.04885208385352E+016
1.02140495055783E+016
9.88141840094063E+015
9.55154608508544E+015
9.24244913781715E+015
8944049534807681
8769176107081757
8252775888439715
7976390293878684
7519275883155317
7136536165936759
6708135679276566
6184416225089010
5920980047262351
5431503355065427
4986814754225869
4590630164328320
4109305974492863
3.57149417678959E+015
3.19995288995568E+015
2669038064208760
2267031866961933
1790397618056794
1309152250757981
748667713407183
874327727361301
1.44574607658086E+015
1.9453233138306E+015
2416980482564784
2979829696014902
3.48067935421332E+015
3907824310468396
4408003977105338
4771167554330235
5390172194958022
5890351861594965
6311714621769086
6822090546539048
7248633073406918
7546582261921277
7940300832458104
8549430135280635
8782181825628018
9.32037084547094E+015
9.57721971130663E+015
1.00747025211541E+016
1.0216245276242E+016
1.05594611215148E+016
1.0846881871206E+016
1.12598556614087E+016
1.16885376571283E+016
1.17724273568423E+016
1.20621564808209E+016
1.20786529117043E+016
1.24316089704338E+016
1.24993963519476E+016
1.2746786513386E+016
1.29810020508425E+016
1.31325102266347E+016
1.30388240116521E+016
1.32995577025081E+016
1.33788869554591E+016
1.33777046174095E+016
1.34922225027908E+016
1.34412130612198E+016
1.35430630389262E+016
1.34846217581859E+016
1.34067000505321E+016
1.32982064590228E+016
1.3133354753813E+016
1.29946270893196E+016
1.29561729517997E+016
1.28480171711617E+016
1.27889002686787E+016
1.25931388687421E+016
1.24161822739763E+016
1.23013265777236E+016
1.19154902608512E+016
1.17339732193224E+016
1.14869208687553E+016
1.12092966343327E+016
1.08934997714497E+016
1.06971753533942E+016
1.02418626006513E+016
9.89419891223933E+015
9.63138205434345E+015
9.28585783478324E+015
8868323597817544
8491495570847287
7992380008455041
7544217585821955
7153933425810329
6768829032492453
6359120747379268
5881850287999789
5277636133355132
4909534887227606
4.42739995130095E+015
3.87180804140327E+015
3329869320888572
2.93081333858471E+015
2.34789252919631E+015
1.88255242375602E+015
1.36200839175898E+015
817536089709292
861034869574408
1.50002102324145E+015
2.03868297830424E+015
2.64348267179253E+015
3164505269190628
3710908723388093
4.25123158190159E+015
4720349538919604
5146503583285443
5737717649565027
6118712010615038
6711344882554213
7274250397816223
7711546570754810
8096031644141913
8525389261604211
9.01757970113416E+015
9.35465864891108E+015
9.73024803601979E+015
1.01955825112789E+016
1.06677295057765E+016
1.08879258920727E+016
1.12168973789377E+016
1.15479520328425E+016
1.20279812810046E+016
1.21677786799239E+016
1.25205658332177E+016
1.29008282707132E+016
1.3018161246689E+016
1.32306442847565E+016
1.35682299488404E+016
1.36215477646989E+016
1.3845854183263E+016
1.39912817633712E+016
1.41473503859263E+016
1.40827722076901E+016
1.42798285493001E+016
1.42149688620045E+016
1.44499726248274E+016
1.4365801416054E+016
1.43305564818118E+016
1.43080357570563E+016
1.43701929573813E+016
1.40876141635125E+016
1.41036601799008E+016
1.39242263054119E+016
1.37930993855234E+016
1.36624791819419E+016
1.35913699935266E+016
1.34480255804583E+016
1.3280921802773E+016
1.30104478984603E+016
1.27649719986261E+016
1.2556317483767E+016
1.23058870244866E+016
1.18881838820852E+016
1.14757731100014E+016
1.12443163613274E+016
1.08803814492797E+016
1.0556308220049E+016
1.02133175820238E+016
9.78829520407692E+015
9.37678526098329E+015
8922711148101910
8475449554459042
8034099651064476
7638410517111547
7211023463065348
6783467503583483
6133012670834737
5769021456975077
5238179823583616
4639021571646554
4182734797557947
3656763270894847
3.16255159631809E+015
2.54767950868293E+015
2.04096883186691E+015
1.47602519101454E+015
879096490828264
917832137407606
1592457338000119
2159157595383416
2735665628397704
3.28128648740992E+015
3.92775515187695E+015
4511430405544656
5065063012388615
5475120368735508
5993496780974840
6574024763357971
7120264942300961
7594269896590902
8122324590293878
8589404421721526
9.15754600548917E+015
9.5330227889741E+015
9.90664161266671E+015
1.03886977260567E+016
1.07371496398351E+016
1.12875561528579E+016
1.15550460611405E+016
1.19784356865426E+016
1.24262602983044E+016
1.27833263893017E+016
1.3004536208212E+016
1.35021316216832E+016
1.33288346446902E+016
1.37418647367048E+016
1.40050757072839E+016
1.41414949974899E+016
1.4492142681932E+016
1.45474310612066E+016
1.49164331363243E+016
1.48609758516141E+016
1.50343854322309E+016
1.52114546306205E+016
1.50143419871985E+016
1.52308224539101E+016
1.51609519053564E+016
1.50761050748403E+016
1.52334686390689E+016
1.51668635956047E+016
1.5060115360264E+016
1.50815663505935E+016
1.49339993016335E+016
1.47336211531221E+016
1.44472701378568E+016
1.44576296712443E+016
1.43045450447192E+016
1.39603720686444E+016
1.39059282165481E+016
1.3546215940392E+016
1.31604359253314E+016
1.28902435300781E+016
1.26233729417263E+016
1.21061844977178E+016
1.20289384118067E+016
1.1575033204361E+016
1.11342463190853E+016
1.08047118141014E+016
1.04881830276638E+016
1.0130835427607E+016
9.41490158763186E+015
9.10946425813632E+015
8552864545805838
8086629241556520
7592186729551024
7072014289512448
6621149379908712
6009036081056087
5502235321341049
5043735886045222
4.43345239607898E+015
3850069911833092
3398253501608439
2704136613740100
2.16901604264511E+015
1.55129508332838E+015
905687836583239
921339740288264
1.67338556240876E+015
2.31120063838852E+015
2928217825056642
3451774003989722
4.04151296279783E+015
4748224565985639
5339112081756270
5875094070573160
6424824961853239
7027929970803689
7617972959395995
8012817566170594
8589010309038306
9.14932594095344E+015
9.64269871853305E+015
1.0118730538051E+016
1.04954459613975E+016
1.10948350507633E+016
1.14226241995786E+016
1.18397080220492E+016
1.22517809832617E+016
1.26622774937413E+016
1.3085892326391E+016
1.34500524456863E+016
1.37016089412045E+016
1.41630022896314E+016
1.42629380057336E+016
1.45981026919063E+016
1.49203742631565E+016
1.50341602249833E+016
1.53055912600982E+016
1.53567696071049E+016
1.55477453530309E+016
1.57279111510744E+016
1.58573490166062E+016
1.59784542139786E+016
1.58772798580148E+016
1.60755185376745E+016
1.61031627273118E+016
1.60746177086843E+016
1.59588048816294E+016
1.60010312405459E+016
1.59653358918085E+016
1.57669846085251E+016
1.57389463062045E+016
1.56104655714748E+016
1.52424206271592E+016
1.51877515678154E+016
1.50207603937538E+016
1.48662682219316E+016
1.46353181895646E+016
1.43725576334806E+016
1.40150974298001E+016
1.35515646125214E+016
1.32771495813765E+016
1.27994850093138E+016
1.25747281762546E+016
1.22218847211488E+016
1.1866057270013E+016
1.14352358054416E+016
1.09473243036152E+016
1.06275300120881E+016
9.93749500558165E+015
9.41563351118641E+015
9.05276833356453E+015
8529161483000747
8048625518531730
7510436498688808
6860600985870836
6403993291454465
5876670521306040
5275108182001334
4740888439896559
4.11069662924651E+015
3497862667201712
2.908433368359E+015
2.24898150607045E+015
1647317823504350
970896595112591
1036116614004320
1.7931226257522E+015
2402460245278719
3.10047321852975E+015
3.72169615054594E+015
4.34749078968749E+015
4964125124034772
5660865676337118
6172367637344853
6752501507044766
7327962326357925
7915471733415242
8448368382940637
9.12697412163367E+015
9.68841578978658E+015
1.01276262243294E+016
1.07360799054092E+016
1.10182082847829E+016
1.16981089651494E+016
1.2178363420559E+016
1.24583523310809E+016
1.28893427010879E+016
1.32176948680221E+016
1.37530687972706E+016
1.41128373752386E+016
1.4327910296653E+016
1.48546137468706E+016
1.50668152758787E+016
1.51947892943014E+016
1.57249271550443E+016
1.5801891731896E+016
1.593020356119E+016
1.63437966713235E+016
1.6340024449927E+016
1.64272922583543E+016
1.66398315982337E+016
1.67687627474585E+016
1.68690362744321E+016
1.68196032835939E+016
1.68697118961748E+016
1.68159999676331E+016
1.6960020002444E+016
1.69134584040122E+016
1.66448424594918E+016
1.66637035664744E+016
1.6595690977713E+016
1.64199730228088E+016
1.61977497712846E+016
1.61774811190047E+016
1.58303241468997E+016
1.55424529827134E+016
1.52998484752855E+016
1.49794911656395E+016
1.46211864347806E+016
1.43325833470398E+016
1.40214032327316E+016
1.36850562085092E+016
1.32115579705263E+016
1.29136650838238E+016
1.23431025221449E+016
1.1902428240493E+016
1.15701349467266E+016
1.09404554825648E+016
1.05253422235103E+016
9.99661190806465E+015
9.59095735340745E+015
8956661140670722
8433955119097162
7875947861469459
7232643358830564
6859700156880619
6198210169001710
5498012685449405
4944284365525237
4.35957878869997E+015
3722602609717351
3.05589344387637E+015
2.35864617526703E+015
1.71342178084273E+015
1.02410743752849E+015
1.11129642341914E+015
1.81810373968716E+015
2538941467477822
3234167501040366
3954543553973538
4628605736447166
5227274162620798
5843170943232335
6402979858840470
7073421834809663
7814409981075244
8237123984734690
8944049534807681
9.53521855963775E+015
1.0055559905112E+016
1.05632333429113E+016
1.12103663687586E+016
1.163313667423E+016
1.21546603577539E+016
1.27033215146081E+016
1.31155070794443E+016
1.36047698247561E+016
1.40854746946608E+016
1.43327522524754E+016
1.46780512647881E+016
1.51635980905152E+016
1.54949342534794E+016
1.59772718759289E+016
1.60497323078295E+016
1.64661968103693E+016
1.67051980018363E+016
1.69212843558647E+016
1.71123164036026E+016
1.71451966617456E+016
1.72994636263203E+016
1.7361226713962E+016
1.77163222415433E+016
1.77617015019255E+016
1.77961582108013E+016
1.77975657560985E+016
1.79277918469968E+016
1.77394059844176E+016
1.77687955302235E+016
1.74665111021937E+016
1.74827260240176E+016
1.73719240582209E+016
1.72118017052098E+016
1.69801760511001E+016
1.69981926309045E+016
1.65788567359584E+016
1.63883314045274E+016
1.59534562095E+016
1.5856954903923E+016
1.55460562986743E+016
1.5169228271704E+016
1.48467877950181E+016
1.43519511703294E+016
1.37977724359101E+016
1.33670072731506E+016
1.29588191369584E+016
1.27568645377141E+016
1.20064176870512E+016
1.15331446563158E+016
1.10750168129785E+016