/*--------------------------------*- C++ -*----------------------------------*\
| =========                 |                                                 |
| \\      /  F ield         | OpenFOAM: The Open Source CFD Toolbox           |
|  \\    /   O peration     | Version:  v1806                                 |
|   \\  /    A nd           | Web:      www.OpenFOAM.com                      |
|    \\/     M anipulation  |                                                 |
\*---------------------------------------------------------------------------*/
FoamFile
{
    version     2.0;
    format      ascii;
    class       volScalarField;
    object      dnp4_s;
}
// * * * * * * * * * * * * * * * * * * * * * * * * * * * * * * * * * * * * * //

dimensions      [0 -3 -1 0 0 0 0];

internalField   nonuniform List<scalar> 
6400
(
228994072340130
371804204945538
503002528023833
636690151959522
808392777430989
941827946003343
1.03929504841831E+015
1.19412524044019E+015
1.31127817526372E+015
1.45774777345118E+015
1.53840839922319E+015
1.7366995780737E+015
1.79507135194763E+015
1890720093434794
2.05666969330665E+015
2145245135875130
2.33056101879925E+015
2.34063648960625E+015
2.51887907361169E+015
2.55360874386514E+015
2742029145446499
2786004140492374
2.78769854811116E+015
2869257551077027
3010473348459928
3.00405961760762E+015
3.12893404755299E+015
3.15229185459313E+015
3.25278500980917E+015
3.32305175260422E+015
3.56225889529622E+015
3.40028944754903E+015
3.47690169001711E+015
3.52992868818078E+015
3603231718453786
3.49080947872699E+015
3.66411667409785E+015
3568172264167146
3590063100852770
3.52095628810548E+015
3.71962273844203E+015
3.55760780324198E+015
3678570312241973
3520490041713731
3.50561564463072E+015
3480711264193568
3537877620566884
3.5071394743013E+015
3355143150592183
3457751472365892
3.29872733719095E+015
3.42095212300762E+015
3.20911705507005E+015
3.15844403259154E+015
3.06445558313352E+015
3010939594851674
2.91320980239648E+015
2.87712688042064E+015
2726506552160329
2647494846554241
2536221165011989
2451944286738139
2348972065341604
2.24090524922551E+015
2.16633994213582E+015
2.00307410198231E+015
1.97206303099961E+015
1.75237000558165E+015
1.74819653178236E+015
1576219844407454
1.45924885939533E+015
1.32849517616868E+015
1.16177228959832E+015
1.06436318368574E+015
914416069727655
856022689313623
660900848740662
521274837834982
403758003388621
230469002998897
347536648848331
544367680462253
802255382854765
1.05037806630601E+015
1.23404048031891E+015
1.46621981154509E+015
1.61409952077099E+015
1.84516440940227E+015
2.12610629008713E+015
2.19986419488866E+015
2400577580603611
2608546215048650
2886258486580928
2925673364478265
3167086648633653
3431334634121369
3.55436682222619E+015
3.74457260633203E+015
3816294947618387
4.00647798799781E+015
4095531048821249
4338024659981901
4.34143621894589E+015
4453596905818785
4683899879614768
4736108103627080
4875083643956959
4897986576468568
5187900857228729
5120386105331299
5255893227381118
5182999584183792
5525076601503412
5317176198237653
5433624077541962
5445496302736659
5533787448724808
5524906023555212
5646357522673378
5593455615005054
5670966234666984
5691742628757704
5637032594838463
5523734721644242
5420250766403108
5385930483225334
5484422190515824
5291089144026317
5317744791398319
5257053157428876
5203491681694179
5140230006638528
5069042142923198
4892891981749005
4738234642047969
4603250625705963
4489350043761436
4.35319472550846E+015
4305012141073658
4081771094333142
3.91400199634716E+015
3.7638479144786E+015
3596545062884358
3.38053652114751E+015
3.34419204631776E+015
3.19133146100443E+015
2.96681676558403E+015
2.77199400501357E+015
2570268523472644
2.49283750685321E+015
2.25103757934857E+015
2.0204048215194E+015
1.77406752059265E+015
1.60550239218173E+015
1.44598926688861E+015
1.20810126032935E+015
1.00930289637953E+015
777885479988639
649231042711161
337203036746395
473102488077073
767015115943034
1.03397301643448E+015
1401707231535977
1583156680967574
1.87224081571316E+015
2135931579903428
2429462113165422
2.75113800788036E+015
2.8952081429298E+015
3.13045787722358E+015
3391658203370126
3.7455733302948E+015
3875621958002233
4287328893776959
4532870164278779
4674927479539466
4873855482729921
5110810996505691
5374786057276289
5427278577868934
5785105625738991
5737275569063803
5923876472531030
6195334219295985
6312964772374478
6499577047704920
6824175511265681
6803615182576013
6787342046317765
6916139769071729
7132205170124647
7158303596199195
7208521744149180
7277537581990768
7376768460390121
7433707379499171
7471655287041990
7252098723982589
7349726169668866
7305228068915178
7422403747465138
7417024856165243
7429818202280219
7257488987145698
7146340396098793
7167912820614444
7055388234118727
6941135124414590
6952757168618592
6921893931857665
6760891092483603
6692716772519801
6492253567795549
6291949569156280
6152837566467843
5870474202881320
5879457974819836
5732317436702799
5480578500749725
5144335249258533
5087180264748430
4861619357912398
4495195181453078
4366351971246260
4.23066289938503E+015
3.92817133791095E+015
3.69302395038609E+015
3.38679104591483E+015
3.28711666485016E+015
3038743800408220
2791917509363296
2374661104340474
2.27852337273514E+015
1.90511687226285E+015
1.61568020975764E+015
1402366799602349
1.05153344760848E+015
805978530870803
477282784994286
574124434932525
928774184220782
1.35562844179564E+015
1728170680663721
2.06069533288416E+015
2375604968987179
2711131793095932
3013680213886082
3.47758400180991E+015
3.73862512187147E+015
3964947943542794
4329427531392638
4531425937650688
5016777059594819
5251571919360060
5559783528030438
5829603726492678
6057416262244945
6454396635158433
6589392023363655
6990000020642187
7160987355917537
7231504279703282
7538112455660585
7717947100515890
8021700938806651
7893778849520112
8168557180343355
8398166470483326
8419863985494324
8766387401330348
8808702104347080
8787015961199296
9.03740164542999E+015
9.02178807723811E+015
9.12145108643957E+015
9.22731176109229E+015
9.25681037426762E+015
9.14116989725145E+015
9.13583649340441E+015
9.21459801801981E+015
9.29282506506417E+015
9.22649298694093E+015
9001978291520521
9.02601841035346E+015
8857112126046147
8767228919208134
8837779958583518
8730179388859165
8616426641136411
8523075016018338
8414917224996533
8259156814563807
8034289591383787
7858446470516352
7670139787567129
7501927186915827
7243478851666898
7003350588054617
6849637113000284
6508322010515955
6268421184167939
5953033929809961
5700487591568741
5537642510354121
5182010232084234
4905821790222540
4718481715646448
4314166490960374
4044698820257747
3764916869620647
3437589158888691
3060066043933179
2.74411019641454E+015
2.42433340285622E+015
2.00968115450924E+015
1716787445587196
1.33625078688016E+015
939289746134131
584705953652511
675015605361024
1234449867394593
1.55984436138029E+015
2.02048442456189E+015
2406468205748106
2879537715421861
3255991875235321
3659522441359676
4047519042334648
4.46635613634412E+015
4875254221905159
5110390237566799
5436899174147396
5968567894959343
6411627057613171
6715653820621050
7044061858358270
7365396597176810
7539056320307288
7899464781126767
8115234513736138
8437854273097782
8706707863186890
8974708563535000
9.30295739518723E+015
9.53583041006942E+015
9.6736915078044E+015
9.84815863322302E+015
9.9861903089062E+015
1.0264516661052E+016
1.02768551326384E+016
1.03295978342218E+016
1.05809501268256E+016
1.04705520787508E+016
1.06998429567208E+016
1.07452280628051E+016
1.08384204818382E+016
1.11325992113033E+016
1.10830065158301E+016
1.11847505759996E+016
1.10510743239271E+016
1.11170993617436E+016
1.10928545493728E+016
1.08924368321014E+016
1.05705335001222E+016
1.0714410313497E+016
1.0705506144601E+016
1.04689372741745E+016
1.05889331748013E+016
1.029565282253E+016
1.02473792631895E+016
9.84034616319548E+015
9.80913039867494E+015
9.92225769392096E+015
9.5752794035564E+015
9.29159690383714E+015
9.07069846091856E+015
8713121594039198
8401180014234853
8218695725250845
7908778337098469
7394531310729313
7116068496224957
6805889555218675
6544495907397500
6238206143610170
5942105569261968
5731714727952494
5154524438697660
4865792831711684
4.42461002648806E+015
4.00075794080151E+015
3722590794740701
3189227666309970
2751752088493880
2405387878742841
2.01491221158737E+015
1.61844357251848E+015
1.10268863708724E+015
673059644888334
814057102497540
1385195286150249
1.8906404903923E+015
2419636823349121
2.77980647504112E+015
3287457820746554
3759651696952883
4.28938720101857E+015
4718697781047501
5166567241840557
5584676536604377
5959208851534788
6411615685749956
6982790259364948
7427464226595064
7613041662373093
8161176841117916
8413882385444121
8677630008950453
9.24915711032506E+015
9.62720333098838E+015
9.86237346223966E+015
1.00569801574091E+016
1.04389382990178E+016
1.06948279650437E+016
1.10408282751719E+016
1.11950193684812E+016
1.14331575560312E+016
1.16511561738303E+016
1.18898515826777E+016
1.18157070345269E+016
1.2046442139125E+016
1.23252802251154E+016
1.243854398272E+016
1.25579485464598E+016
1.2648696014902E+016
1.27608225861853E+016
1.29585792874647E+016
1.31404153802456E+016
1.27682142972739E+016
1.28817054921428E+016
1.2893873385781E+016
1.27025986465331E+016
1.27269344338096E+016
1.26284540983823E+016
1.26380064634815E+016
1.24437750397981E+016
1.23041285595387E+016
1.22246392356776E+016
1.20251767549161E+016
1.18864400237137E+016
1.16403529037777E+016
1.13294347916625E+016
1.12569619074041E+016
1.10155713669751E+016
1.07833579201593E+016
1.05452424763358E+016
1.01247223465708E+016
9.78411229960565E+015
9.603299674514E+015
9.29321170841343E+015
8772278026474844
8477132688636559
7935206547206204
7634534483846250
7320364018852097
7009298072515177
6474411114413862
6021879189703348
5659776321265086
5175744335453699
4681432185297479
4227058018746409
3719486276083468
3224537301587302
2.84305677823356E+015
2.3640056685096E+015
1.88751322800864E+015
1.28383786933E+015
805668079005080
905453904329245
1.5129581693518E+015
2.14745127733851E+015
2727973522514846
3152974166385934
3.70482794440151E+015
4245639643236959
4831063161458231
5312525106183409
5924717990408815
6342929631941555
6824903310511332
7358323298258131
7844049691688300
8224813787659606
8784548266882007
9.05598326992054E+015
9.6268735469552E+015
1.01757478968089E+016
1.05573080232051E+016
1.08174280223464E+016
1.12694937006652E+016
1.14349770541453E+016
1.16673042195932E+016
1.20609981240381E+016
1.25366831622509E+016
1.30188501624953E+016
1.31599749849725E+016
1.30096389532925E+016
1.34741795655563E+016
1.36845590350025E+016
1.38371694393252E+016
1.39529350068367E+016
1.40358358896617E+016
1.4284652256769E+016
1.43755134438433E+016
1.47175790892998E+016
1.4682781187867E+016
1.44810443344629E+016
1.45980608069279E+016
1.4633199864257E+016
1.46973371727801E+016
1.46085229210841E+016
1.46184164420797E+016
1.43661885160084E+016
1.42876089412044E+016
1.42971613063036E+016
1.41843524232276E+016
1.39119962992688E+016
1.37228822140314E+016
1.33918472758919E+016
1.32068270614113E+016
1.33431757013389E+016
1.2685427133081E+016
1.23729283319792E+016
1.24586721806076E+016
1.21220650294936E+016
1.15674592605804E+016
1.10355176150513E+016
1.09839917028318E+016
1.06366608847076E+016
1.01675146678424E+016
9.56952524077047E+015
9.10731586046542E+015
8723049230624419
8237982405260621
8129972448460589
7543843874720092
6881546561176837
6536581090601035
5855383740397256
5360639459438930
4830176156127592
4.29017185958029E+015
3639996952222421
3.20765008471553E+015
2589634806524913
2.18603600922128E+015
1.56963553560695E+015
970105221069563
1.01997084125993E+015
1.75026621088718E+015
2446952038787495
3.05625646975672E+015
3583854063538302
4256943275270991
4863472971616168
5328877845484151
6066445521636315
6643010358414417
7116966873418810
7688789643236960
8381290625474771
8702022655543006
9.2458592699932E+015
9.89167875374037E+015
1.0393530449207E+016
1.08867509004948E+016
1.12402452684805E+016
1.17829560684726E+016
1.20692995841838E+016
1.24592407737682E+016
1.29592615992575E+016
1.32445816472795E+016
1.36009758403847E+016
1.39126786110616E+016
1.44753584028562E+016
1.43817679686107E+016
1.50407674418221E+016
1.5343145284664E+016
1.52535350025431E+016
1.54156977719649E+016
1.55637594310023E+016
1.57450269306224E+016
1.60391033133187E+016
1.59746248488992E+016
1.62597174596569E+016
1.64048224342588E+016
1.64845391953841E+016
1.64715752713209E+016
1.65102396062462E+016
1.63663855365978E+016
1.62793907830159E+016
1.65914347095892E+016
1.61569158162086E+016
1.58233790681622E+016
1.60110148111818E+016
1.57679980943133E+016
1.56523462454339E+016
1.51946287510982E+016
1.51342441574355E+016
1.50516844305068E+016
1.44824089580485E+016
1.42198326364531E+016
1.39081298657762E+016
1.37119652253466E+016
1.33974194888664E+016
1.32316177232164E+016
1.27276167456024E+016
1.20977292422171E+016
1.17099487066432E+016
1.11833745805508E+016
1.07042552396475E+016
1.00973502718163E+016
9.84662343168923E+015
9.33805096506351E+015
8868063230320566
8439662399348698
7936343733527536
7249471823580313
6627942639656777
5992323717211951
5489983031627134
4757020960076360
4217278216382961
3.55796033100159E+015
2.92708347551672E+015
2454059453295814
1783892810408947
1047859198604258
1.10562257779627E+015
1893688149733468
2750865083163242
3.39770803459961E+015
4.11444245734499E+015
4604945033324746
5384827412493643
6072438493549730
6622757070031509
7300144846058830
8039861804358309
8389842266611181
9.19592541862355E+015
9.93897433284453E+015
1.05507350862678E+016
1.06719250325321E+016
1.13673940710686E+016
1.22621663842816E+016
1.25524900521174E+016
1.29918988466797E+016
1.35144359613314E+016
1.38591171353269E+016
1.41083883769627E+016
1.48093500254312E+016
1.50144984377993E+016
1.54086472167727E+016
1.59375525748238E+016
1.60638939751237E+016
1.63324973842221E+016
1.66648969459472E+016
1.70367568730225E+016
1.71733329502144E+016
1.76279800414825E+016
1.76634602547081E+016
1.76640288478687E+016
1.784961765551E+016
1.80586325013706E+016
1.82607105106712E+016
1.83906909071993E+016
1.8310064397017E+016
1.82251165788135E+016
1.82405823127836E+016
1.79826684551057E+016
1.79211466751217E+016
1.78786159067039E+016
1.7554062930596E+016
1.74763931048491E+016
1.72305334221773E+016
1.72668096658278E+016
1.70502893902463E+016
1.66824096152957E+016
1.6342618342482E+016
1.5997482293958E+016
1.58375938971788E+016
1.54680083427462E+016
1.51824608574599E+016
1.49340993648812E+016
1.4526418068684E+016
1.3874582869297E+016
1.3540591246722E+016
1.28167721531948E+016
1.26237916344649E+016
1.20998898962276E+016
1.14744374194955E+016
1.0668240548851E+016
1.02015847700295E+016
9.85857525992642E+015
9.17302248611194E+015
8665814643071822
7945623173909598
7448957048068223
6846589453659117
6060327459227553
5303564077971319
4666159773002002
4013824211633607
3292415953107558
2.68190610463772E+015
1.87102402634934E+015
1.17531617868537E+015
1.2433426644274E+015
2.00655389212558E+015
2923910725680202
3695741825694074
4.48732585210947E+015
5130711757128986
5898539961291772
6535750944586464
7313370322975910
8061877731539280
8870610527680347
9.42626250800917E+015
9.90398310973717E+015
1.0810741366777E+016
1.14461214800943E+016
1.20526966638924E+016
1.26584758172655E+016
1.32395780274657E+016
1.37969130435501E+016
1.43249086525441E+016
1.4961278117961E+016
1.52121414204467E+016
1.57064763143293E+016
1.62861001823118E+016
1.67293754103667E+016
1.72676056962527E+016
1.75269978961483E+016
1.78832783706214E+016
1.82356924116019E+016
1.84722271664388E+016
1.88049678840603E+016
1.90295621825232E+016
1.92940717208648E+016
1.93467234475424E+016
1.96892439675274E+016
1.95738195559123E+016
1.98664175963908E+016
1.98443561817569E+016
1.98028488810283E+016
1.99749051714457E+016
2.0168226846072E+016
1.99655802436108E+016
1.99398798327487E+016
1.97258613670742E+016
1.96811699446459E+016
1.94025592959198E+016
1.92590463821678E+016
1.9029448463891E+016
1.89210746074682E+016
1.86583845672407E+016
1.84453895692554E+016
1.81305026768788E+016
1.78150471913415E+016
1.75032307020325E+016
1.69443036250983E+016
1.69063216019658E+016
1.62867824941046E+016
1.55948046175746E+016
1.5334616387254E+016
1.47718228768272E+016
1.4149668240427E+016
1.34518907136582E+016
1.28553227694879E+016
1.2343702643521E+016
1.18788208753608E+016
1.14431647956589E+016
1.07623654606676E+016
1.01692431910509E+016
9.23677315128576E+015
8772187051569138
8108695692388484
7363099480807723
6406418744261472
5782956343591675
5043296244608261
4400103661263368
3.61481964706815E+015
2.85140372583213E+015
2.11490500482201E+015
1.22421519050261E+015
1406415182906288
2204992905197868
3170122936111607
3978525948219488
4684650422586846
5585461195166096
6414720204407188
7106209090819017
8041965599052772
8795169587123240
9.83534254338162E+015
1.02684854413134E+016
1.07062794312995E+016
1.15866777094109E+016
1.23682658680617E+016
1.29640377818071E+016
1.36776221984424E+016
1.42828327586549E+016
1.495695680994E+016
1.57495756759078E+016
1.62393618245051E+016
1.68234207191408E+016
1.71321668053822E+016
1.72629432323352E+016
1.80021143412005E+016
1.85958393195675E+016
1.91491941835272E+016
1.92965735307717E+016
1.99150891709437E+016
2.00189142820813E+016
2.02671620560278E+016
2.04177255249721E+016
2.06854191850134E+016
2.10464758420361E+016
2.1372734597626E+016
2.14409657769059E+016
2.14789478000383E+016
2.18224917877124E+016
2.16396322272424E+016
2.21374923987212E+016
2.19615696748113E+016
2.17400457794159E+016
2.18737788908045E+016
2.15528649109248E+016
2.14075324990587E+016
2.09407175141523E+016
2.1055800769871E+016
2.08826072931323E+016
2.05663557771701E+016
2.03895233042031E+016
2.01686817206006E+016
1.96724136099717E+016
1.92715554317024E+016
1.88668308199407E+016
1.85909494183857E+016
1.82559343281216E+016
1.73183242061841E+016
1.71438798244919E+016
1.65851801848219E+016
1.60603686975276E+016
1.55677395831269E+016
1.4650257659077E+016
1.42215384159351E+016
1.35160280221813E+016
1.29383373709451E+016
1.25562427669778E+016
1.16927771931911E+016
1.08558535481442E+016
1.0307752484989E+016
9.4470502739631E+015
8798910930120419
7963624833376270
7106072628460456
6362773533248783
5595661756468437
4801621407598967
3.84746522468607E+015
3139055005812840
2.25339155503372E+015
1.3207395654572E+015
1.61036954963703E+015
2.43770671399507E+015
3349866606061208
4.31678201949944E+015
5184614388760082
5995939969713784
6928614703016733
7696715831896638
8462440241364961
9.40457636486138E+015
1.0310470360297E+016
1.11012014969714E+016
1.15660946369948E+016
1.24415006671555E+016
1.32551574800679E+016
1.41450057765095E+016
1.49835669698591E+016
1.55608027465668E+016
1.62211668433638E+016
1.68446861033497E+016
1.73675643738977E+016
1.820839993989E+016
1.83123387696596E+016
1.90044303648218E+016
1.96614966212869E+016
2.0088737522211E+016
2.0635496705507E+016
2.09333258030636E+016
2.10684235380378E+016
2.17091143114757E+016
2.21045139954026E+016
2.24163304847116E+016
2.28615389295127E+016
2.28925841160851E+016
2.29205588995898E+016
2.30971639352925E+016
2.36111721525342E+016
2.35801269659619E+016
2.32568248948074E+016
2.34974535204011E+016
2.35168994064959E+016
2.37247770660352E+016
2.3457197124626E+016
2.3233398856588E+016
2.28986112035881E+016
2.29111202531227E+016
2.26842515820172E+016
2.231762271202E+016
2.22613319891141E+016
2.19298421764461E+016
2.17310620074774E+016
2.13161027188237E+016
2.08213129504125E+016
2.06418649489065E+016
2.02113262076505E+016
1.956676900072E+016
1.91833097731671E+016
1.84592632423756E+016
1.78280111154047E+016
1.74612685267754E+016
1.69629534807681E+016
1.61444067666739E+016
1.55112214229568E+016
1.47788734320195E+016
1.4086440680961E+016
1.33187261954303E+016
1.26698476804788E+016
1.17525931936931E+016
1.09401872857341E+016
1.02429442365363E+016
9.40935254741098E+015
8732681198766094
7702401763503294
6854106255243118
5991402596291673
5119226175283541
4319431663628137
3.37835312341055E+015
2.41144908183554E+015
1450447037268230
1.66899150450165E+015
2650735827570035
3.66429862390927E+015
4572250926586476
5544636206230308
6508412985421663
7405664364815146
8553574353156439
9.13706465463145E+015
1.01130434430507E+016
1.10578519544022E+016
1.19219202369393E+016
1.27557052477393E+016
1.35628800986201E+016
1.41976575031872E+016
1.52089572987469E+016
1.58273592202868E+016
1.64967070890223E+016
1.72139305018859E+016
1.7896583450581E+016
1.86074386200451E+016
1.96704803932254E+016
1.99589845629471E+016
2.05574857238637E+016
2.14158339592044E+016
2.17541468898004E+016
2.22406351980659E+016
2.25613217406813E+016
2.29918604819373E+016
2.34241050026752E+016
2.38029017663106E+016
2.38902376757889E+016
2.41856786820707E+016
2.49208696388113E+016
2.47216345953141E+016
2.51177165910337E+016
2.51274963933971E+016
2.50683627046879E+016
2.52314352231668E+016
2.51818538995568E+016
2.54650132935682E+016
2.51348881044858E+016
2.53383307373719E+016
2.51356841349107E+016
2.51510361502487E+016
2.48285301095192E+016
2.45528761452285E+016
2.44103866991657E+016
2.40973193049033E+016
2.38214379033483E+016
2.3511895786682E+016
2.3033481501298E+016
2.27164339549109E+016
2.20658496604773E+016
2.16581683642801E+016
2.11847576987099E+016
2.0630379367061E+016
1.99585296884186E+016
1.92922522227507E+016
1.86679369323399E+016
1.80652281820344E+016
1.77120181106289E+016
1.6668990816704E+016
1.61107460515625E+016
1.51874644772738E+016
1.44144052160329E+016
1.3549120144132E+016
1.24913094280298E+016
1.19592199482789E+016
1.09705729042401E+016
1.00723890320631E+016
9.2721737614688E+015
8299993175362808
7213718685637662
6463278060328028
5390934103039191
4578960325882331
3.61625250183303E+015
2644231121812021
1.51216213892687E+015
1765970753984768
2920123895230169
3.92917206187372E+015
4881827158842453
6018672324277194
7030290532006949
7893039678411246
8903304634418618
9.63682392726684E+015
1.08870920563912E+016
1.18973570123985E+016
1.27484272552828E+016
1.37792866555694E+016
1.46408190126099E+016
1.52426180138583E+016
1.60378524083652E+016
1.72681742894134E+016
1.77382871146517E+016
1.88253235192121E+016
1.93441079190034E+016
2.03489257525316E+016
2.06348143937142E+016
2.13280431751977E+016
2.19085767922372E+016
2.27427029589336E+016
2.36085566239951E+016
2.37779973858735E+016
2.43631934668305E+016
2.43965130260455E+016
2.5109415130888E+016
2.52463323639763E+016
2.57460120335692E+016
2.62190815432429E+016
2.65250983823131E+016
2.63358705784436E+016
2.68625015638521E+016
2.70227311165276E+016
2.70203430252528E+016
2.72516467230116E+016
2.7148617642299E+016
2.73543346478278E+016
2.72362947076736E+016
2.70789081208014E+016
2.68597723166809E+016
2.65268041617951E+016
2.62466014522191E+016
2.61689316264722E+016
2.59504781341445E+016
2.58310735704047E+016
2.54356738864779E+016
2.50782562256835E+016
2.4846270216132E+016
2.40669564301237E+016
2.37003275601266E+016
2.32013302023265E+016
2.26405836272781E+016
2.20027358196434E+016
2.16061989493953E+016
2.06865563713348E+016
1.99843438179128E+016
1.94535052431154E+016
1.87556139977145E+016
1.79122766218153E+016
1.71511578169484E+016
1.61430421430883E+016
1.52378418313088E+016
1.4449544273362E+016
1.36717088295715E+016
1.28441783435388E+016
1.18801854989464E+016
1.06597912544835E+016
9.91629883759718E+015
8942480703188476
7820293869435693
6725683803975191
5919668883142104
4742283025351908
3.80238715890851E+015
2750990173658588
1.6512627697521E+015
1.73912178493814E+015
3029748656606491
4117740297676846
5339317215913971
6391680809537021
7495308762525680
8586655103243962
9.53418148990349E+015
1.03949291883822E+016
1.15890658006857E+016
1.23585997843304E+016
1.35556021061636E+016
1.46925609902305E+016
1.55758136060084E+016
1.63523981448454E+016
1.72196164334925E+016
1.82137447156002E+016
1.88945781661812E+016
1.96531951611412E+016
2.05930796557214E+016
2.15467241047897E+016
2.19914776750623E+016
2.2655935642616E+016
2.33246011995588E+016
2.42941662571257E+016
2.45765296207122E+016
2.52890905696583E+016
2.60571462110854E+016
2.62941358404508E+016
2.67233099581211E+016
2.74051668763913E+016
2.75128584210213E+016
2.79659134514397E+016
2.82596486782395E+016
2.85748767265125E+016
2.84444414554558E+016
2.88424566679217E+016
2.87114528037044E+016
2.9186114374228E+016
2.9016105019189E+016
2.89449171554737E+016
2.88994297026204E+016
2.90249750724954E+016
2.84542212578193E+016
2.84866310679772E+016
2.8124209787369E+016
2.78593590931309E+016
2.75955318665821E+016
2.7451905234198E+016
2.71623775967871E+016
2.6824860696616E+016
2.62785563878485E+016
2.57827431517481E+016
2.53613019010628E+016
2.48554814253347E+016
2.40118028935392E+016
2.31788139131641E+016
2.27113166164649E+016
2.19762393783564E+016
2.13216749317982E+016
2.06289010248433E+016
1.97704390708704E+016
1.89392695886095E+016
1.80221288204559E+016
1.71187480067905E+016
1.6227307649499E+016
1.54280931028674E+016
1.4564854966345E+016
1.37012756739261E+016
1.23874843168922E+016
1.16522933601517E+016
1.05800972370846E+016
9.36991492578721E+015
8448305015390815
7385945554003264
6387734773002003
5145813591476263
4.12235727414145E+015
2.98128177559136E+015
1.77560272212644E+015
1.85384114103403E+015
3216451906842638
4361075426715283
5525508732305518
6627555996307526
7933296074186368
9.11220576164715E+015
1.02304351870017E+016
1.10586707285536E+016
1.21056895464664E+016
1.32782423623909E+016
1.43815405313464E+016
1.53389376952751E+016
1.64055047460516E+016
1.73489145182279E+016
1.84964492350831E+016
1.92548387927789E+016
2.00094756356142E+016
2.09831345639379E+016
2.16869391782098E+016
2.27986525259431E+016
2.33389297472075E+016
2.41940938608485E+016
2.50986118608353E+016
2.58198154258235E+016
2.62666159314745E+016
2.7271661202267E+016
2.69216352525613E+016
2.77558751378898E+016
2.82875097431121E+016
2.85630499887707E+016
2.92712896296957E+016
2.93829613264504E+016
3.01282732414508E+016
3.00162603887997E+016
3.03665137757697E+016
3.07241588738283E+016
3.03260299427303E+016
3.07632780832821E+016
3.0622153260805E+016
3.04507792821803E+016
3.07686228589924E+016
3.06340937171789E+016
3.04184831906545E+016
3.04618099894973E+016
3.01637534546764E+016
2.97590288429146E+016
2.91806558798856E+016
2.92015801081981E+016
2.88923791474282E+016
2.81972171491984E+016
2.80872512319257E+016
2.73607028912272E+016
2.65815028238511E+016
2.60357671082443E+016
2.54967407919334E+016
2.44521214371586E+016
2.42960994738719E+016
2.33792998616148E+016
2.24889966906446E+016
2.18234015367695E+016
2.11840753869171E+016
2.04623032287683E+016
1.90162571025636E+016
1.83993335232415E+016
1.72751111259735E+016
1.63334071332792E+016
1.53347301058862E+016
1.42840836636083E+016
1.33734248574863E+016
1.21370758889351E+016
1.11134376217889E+016
1.01873585691497E+016
8954705456142785
7776387105569097
6863806454564071
5461826298310974
4.38098755920179E+015
3.13331221489012E+015
1.82931203208291E+015
1860925811815918
3379911068670776
4668172592790758
5914426454200768
6971907386269809
8163064570411326
9.5904835846726E+015
1.07839606289096E+016
1.18665392630905E+016
1.29768879872382E+016
1.41950419746481E+016
1.53868132394031E+016
1.61843220065527E+016
1.73481184878029E+016
1.84798463147917E+016
1.94763626881742E+016
2.04378537228597E+016
2.11987450904623E+016
2.24093936481515E+016
2.30714635244304E+016
2.39138911512725E+016
2.47461978198548E+016
2.55753203667373E+016
2.64309393549069E+016
2.71664714675439E+016
2.76745663159146E+016
2.86064905062455E+016
2.88083410782818E+016
2.94853080953702E+016
3.01362335457002E+016
3.03660589012412E+016
3.09142964267549E+016
3.10176666633639E+016
3.14034002635594E+016
3.17672998863854E+016
3.20287390216594E+016
3.22733477993778E+016
3.20689954174346E+016
3.24693987211752E+016
3.25252345695526E+016
3.24675792230611E+016
3.22336599967633E+016
3.23189489708631E+016
3.22468513580907E+016
3.18462206170858E+016
3.17895887382835E+016
3.15300828197557E+016
3.07867041215016E+016
3.06762833297003E+016
3.03389938667935E+016
3.00269499402202E+016
2.95604761112102E+016
2.9029751255045E+016
2.83077516596318E+016
2.73715061612799E+016
2.68172415482631E+016
2.58524526732457E+016
2.53984878937704E+016
2.46858132261921E+016
2.39671114711109E+016
2.30969364980283E+016
2.21114508319627E+016
2.14655290014466E+016
2.00717934460232E+016
1.90177354447813E+016
1.82848188606834E+016
1.72272355818454E+016
1.62566470565893E+016
1.51696106520289E+016
1.38570701999485E+016
1.29348120933489E+016
1.18697233847902E+016
1.06546852879007E+016
9.57566604690566E+015
8302802025576496
7064997458533976
5874465726869191
4542502132420454
3.32725934199314E+015
1961020951819485
2.09275261528248E+015
3621756483628269
4852499123615323
6262348609212030
7517097252442384
8781079848601946
1.00265604233135E+016
1.1433839867824E+016
1.24669736407533E+016
1.36387304262529E+016
1.48010485652855E+016
1.59877024915945E+016
1.70640493447344E+016
1.84347000178349E+016
1.95687022174663E+016
2.04558212667367E+016
2.16847785241992E+016
2.22546225898183E+016
2.36278887914578E+016
2.45979087235532E+016
2.51634314811512E+016
2.60339476101302E+016
2.66971546727305E+016
2.77785051456843E+016
2.85051672050149E+016
2.89395723797634E+016
3.00034101833687E+016
3.04320157078784E+016
3.06904981587169E+016
3.17612727988824E+016
3.19167261690083E+016
3.21758909316397E+016
3.30112680032895E+016
3.30036488549366E+016
3.3179912734743E+016
3.36092005710455E+016
3.38696162386303E+016
3.40721491224594E+016
3.39723041634465E+016
3.4073513746045E+016
3.396502617099E+016
3.42559184319865E+016
3.41618731232124E+016
3.36193215293053E+016
3.36574172710699E+016
3.35200451634531E+016
3.31651293125656E+016
3.27162818715362E+016
3.26753431639683E+016
3.19741540782355E+016
3.13927107121389E+016
3.09026971262773E+016
3.02556381094399E+016
2.95319327345448E+016
2.89490110262304E+016
2.83204881464307E+016
2.76411330380675E+016
2.6684759341828E+016
2.60830740592117E+016
2.49306494411747E+016
2.40405737074688E+016
2.33694063406192E+016
2.20975771588425E+016
2.1259129684125E+016
2.01911980097629E+016
1.93718552652438E+016
1.80907011556322E+016
1.70349373749084E+016
1.59078720118371E+016
1.46085229210841E+016
1.38552507018343E+016
1.25191704929024E+016
1.11049087243789E+016
9.98648597734974E+015
8805495238920926