/*--------------------------------*- C++ -*----------------------------------*\
| =========                 |                                                 |
| \\      /  F ield         | OpenFOAM: The Open Source CFD Toolbox           |
|  \\    /   O peration     | Version:  v1806                                 |
|   \\  /    A nd           | Web:      www.OpenFOAM.com                      |
|    \\/     M anipulation  |                                                 |
\*---------------------------------------------------------------------------*/
FoamFile
{
    version     2.0;
    format      ascii;
    class       volScalarField;
    object      dnp5_s;
}
// * * * * * * * * * * * * * * * * * * * * * * * * * * * * * * * * * * * * * //

dimensions      [0 -3 -1 0 0 0 0];

internalField   nonuniform List<scalar> 
6400
(
356632920134554
579043893900812
783370759648984
991574435939864
1258982269212096
1466792774219065
1618586997519635
1859717883317150
2.04217061155368E+015
2.27028079789483E+015
2395900794146206
2704717356198271
2795624932789041
2.94458726022036E+015
3.20303539292815E+015
3.34098184024269E+015
3.62959081513518E+015
3.64528224565523E+015
3.92287534043094E+015
3976962957595995
4270406876655504
4.33889306381243E+015
4.34153191612336E+015
4.46855103541208E+015
4688479008547517
4678490332685994
4872968434876380
4909345633847242
5065852599429285
5175285273451176
5547823920165930
5295574433826104
5414889521200352
5497473201239852
5611634556919593
5436549362651845
5706456135931277
5557033337626909
5591125892650721
5483499681284638
5792900687137111
5540580359124507
5728966077456090
5482773554138676
5459608327140677
5420822511295405
5509852783557590
5461981523178699
5225264073595175
5385065176961338
5137402688933807
5327754263684945
4997844593563602
4918926970090299
4772550363715330
4689205135693479
4537001801732623
4480806644802463
4.24623215582044E+015
4.12318017020721E+015
3.94988372817708E+015
3.81863181893995E+015
3658263982191573
3489961878092200
3373834665992906
3119566191978942
3071269881563390
2729122312469863
2722622588992596
2.45478793464188E+015
2272618573096460
2.06898418469968E+015
1.80933174355468E+015
1657627843386904
1.42410181116197E+015
1.33316058477664E+015
1.02927991627529E+015
811827859603406
628808397984662
358929961374340
541249861474414
847792405830344
1.24942395651269E+015
1635847571091691
1.92188145117875E+015
2283475059449498
2513781337646725
2873639324934441
3311175206421867
3426044978829374
3.7386338599568E+015
4.06252198789212E+015
4.4950281106124E+015
4556412420073453
4932386887917882
5343923875496237
5535532889939163
5831757344655161
5943456952205907
6239645986085516
6378336270964205
6755993228537080
6761306353995336
6935984208644618
7294655597913323
7375964127842842
7592403148594019
7628071930837116
8079581332279757
7974434579460859
8185471922662809
8071948142038061
8604695231737445
8280913366311291
8462268048619781
8480757725214515
8618261412074193
8604429575464531
8793576841778465
8711187976339101
8831902186750689
8864259120791472
8779054298859231
8602605402390532
8441440596823416
8387990554713354
8541380486693221
8240285666973823
8281798887221001
8187278385318617
8103862315623989
8005339259209719
7894472041314098
7620137663486119
7379275976045155
7169053312080138
6991665763447146
6779618926408128
6704579884519351
6356906664949237
6095624865330375
5861776503494310
5601220831021409
5264811437422798
5208208940874172
4970145499507890
4620488713100028
4317073828597190
4.00290872025048E+015
3.88231848276625E+015
3.50574186070322E+015
3146556869306886
2.76291379038437E+015
2500392261491918
2.25196822548204E+015
1.88148398727781E+015
1.57187754057428E+015
1.21147053032255E+015
1.01110548512441E+015
525156404461355
736804757091004
1.19454114157072E+015
1.61029852180475E+015
2.18300385703387E+015
2.46559128974034E+015
2915807830654804
3326477007741646
3783618322170039
4.28459292162905E+015
4508966209731223
4875341630914401
5282132226416714
5833315861456249
6035852203924989
6677040184227388
7059443533876305
7280682077958110
7590490423429047
7959522407341353
8370634344883050
8452385635267424
9.00966165416576E+015
8935171635241002
9.22578188738944E+015
9.64854728010291E+015
9.8317438459036E+015
1.01223718084702E+016
1.06278979854052E+016
1.05958775493101E+016
1.05705339408742E+016
1.07711221373416E+016
1.11076200830311E+016
1.11482654927868E+016
1.12264746995323E+016
1.13339592275529E+016
1.14885003367154E+016
1.15771764006137E+016
1.16362760661277E+016
1.12943410220525E+016
1.14463849622496E+016
1.13770840958557E+016
1.15595722449286E+016
1.15511952171228E+016
1.15711194375912E+016
1.13027357602765E+016
1.11296341328465E+016
1.11632307961609E+016
1.09879862081294E+016
1.08100496365324E+016
1.08281496839268E+016
1.07800836089478E+016
1.05293395081545E+016
1.04231655510803E+016
1.01109662991532E+016
9.79901499308074E+015
9.58236344731123E+015
9.14261376354953E+015
9.15660499392294E+015
8927449892908336
8535394365343585
8011732720177820
7922720158333830
7571434013452100
7000768918398959
6800109880258804
6588789170365747
6117692046400334
5751476018980904
5274552167429603
5119320351957541
4732507108178269
4.34810248127341E+015
3.69827181689224E+015
3548547941478575
2967008649654202
2516243085775717
2.18403106128913E+015
1.63764694958022E+015
1255222347429470
743315106819188
894135257119077
1446462985173956
2.11124124251102E+015
2691434542552630
3209304880968895
3.69974178160236E+015
4.22228767042189E+015
4693473346478278
5415952146292004
5822494795939600
6174967538840339
6742604152382274
7057194310765643
7813074959293608
8178741963749018
8658747428066108
9.07896252055962E+015
9.4337553282438E+015
1.00520083169847E+016
1.02622486913679E+016
1.08861513035128E+016
1.11524451514806E+016
1.12622674547028E+016
1.17397757500545E+016
1.20198483033774E+016
1.24929112837624E+016
1.22936867894959E+016
1.27216236243221E+016
1.3079214678081E+016
1.31130061559955E+016
1.36526780192088E+016
1.37185784853094E+016
1.36848047178131E+016
1.40747527056127E+016
1.40504363014321E+016
1.42056504064859E+016
1.43705166894556E+016
1.44164575142514E+016
1.42363602716347E+016
1.42280540855016E+016
1.43507164419145E+016
1.44725464086724E+016
1.43692415393457E+016
1.40195847529378E+016
1.40570245770003E+016
1.3793971735562E+016
1.36539885901552E+016
1.37638640246319E+016
1.35962880476785E+016
1.3419130734482E+016
1.32737459115259E+016
1.3105302124081E+016
1.28627225260752E+016
1.25125167167033E+016
1.22386605201666E+016
1.1945393705289E+016
1.16834211993606E+016
1.12809165250613E+016
1.09069433344728E+016
1.06675516117419E+016
1.01359911200616E+016
9.76237213783696E+015
9.27119139963934E+015
8877878432382803
8624265243842024
8070407335655167
7640274408972912
7348512979641850
6718836771165673
6299170701636182
5863441282804564
5353664605503042
4765714142292373
4273647883185041
3775630923564460
3.12985594494977E+015
2.67370641394025E+015
2.08106268990812E+015
1462839808878122
910614801248770
1.05126208733792E+015
1.92251902623374E+015
2.42928493244225E+015
3146680842234245
3747807856581390
4.48456125345963E+015
5070846937360046
5699301126980824
6303562885348341
6955855297858497
7592668804866933
7958867121868169
8467368649059708
9.2953838308926E+015
9.98539943415638E+015
1.0458887464578E+016
1.0970346631608E+016
1.14707899185212E+016
1.17412457147646E+016
1.2302541998593E+016
1.26385794734096E+016
1.31410240375787E+016
1.35597337445257E+016
1.39771151701081E+016
1.44883263912834E+016
1.4851000335064E+016
1.50657037348321E+016
1.53374169707674E+016
1.55523860268084E+016
1.59858485121112E+016
1.60050643158519E+016
1.60872052354365E+016
1.64786586087827E+016
1.63067258689535E+016
1.66638210310029E+016
1.67345033100159E+016
1.68796401871173E+016
1.73377909953828E+016
1.72605558616379E+016
1.74190109732213E+016
1.72108250073486E+016
1.73136516953841E+016
1.72758930837941E+016
1.69637646735397E+016
1.64624358657168E+016
1.66865080767097E+016
1.66726408192636E+016
1.63042109895699E+016
1.6491091322355E+016
1.60343396371269E+016
1.59591589118925E+016
1.5325249913468E+016
1.52766348155249E+016
1.54528180557207E+016
1.49124377757796E+016
1.44706336835074E+016
1.41266088100853E+016
1.35697224203872E+016
1.30839079389024E+016
1.27997088581403E+016
1.23170468310941E+016
1.15161640099347E+016
1.10824889996136E+016
1.05994196329489E+016
1.01923279603373E+016
9.715315556695E+015
9.25417168775472E+015
8926511240744044
8027601254879814
7577933736929369
6890840352667632
6230737645733838
5797523106285793
4966869072141966
4.28554928421154E+015
3.74612536685294E+015
3138002737319092
2.5205467173969E+015
1717315494784958
1.04821589540852E+015
1.26780382851462E+015
2.15728832981591E+015
2.944463287293E+015
3.76831652085026E+015
4329240885896598
5119851664503366
5855241359180654
6680245769920536
7348849477587540
8046356587747459
8697515533493187
9.28080815671878E+015
9.98538172373818E+015
1.08749228983777E+016
1.1567453381025E+016
1.1856469695536E+016
1.27101295629141E+016
1.31036904760253E+016
1.35144482052032E+016
1.44045384028067E+016
1.49933035452543E+016
1.53595549935101E+016
1.56626333800672E+016
1.62574909063736E+016
1.66560107365793E+016
1.71948679205557E+016
1.74350034808507E+016
1.78058773482552E+016
1.81453860650377E+016
1.85171277429338E+016
1.84016558163077E+016
1.87610002014677E+016
1.91952596555892E+016
1.93716554208034E+016
1.95576148118423E+016
1.9698943949032E+016
1.98735686724267E+016
2.01815528448236E+016
2.04647424317487E+016
1.98850804442529E+016
2.00618304178309E+016
2.00807805652987E+016
1.97828913312724E+016
1.9820791626208E+016
1.96674194046463E+016
1.96822961559294E+016
1.93798022131727E+016
1.91623182777481E+016
1.90385224545707E+016
1.87278817194446E+016
1.85118146174755E+016
1.81285611677533E+016
1.7644340623906E+016
1.75314721287544E+016
1.71555330817464E+016
1.6793886342221E+016
1.64230478956529E+016
1.576813434125E+016
1.52376718954977E+016
1.49560762462101E+016
1.4473148562891E+016
1.36618520158334E+016
1.32021958220214E+016
1.23582058429774E+016
1.1889942385923E+016
1.14006566624722E+016
1.09162058831883E+016
1.00831786530065E+016
9.37841027138696E+015
8814475135247608
8060648895230169
7290812437165184
6583174967798189
5792688162118781
5021859920634921
4427746231892674
3681677155044290
2939592922289599
1999435372451103
1.25473885301277E+015
1.41014423058313E+015
2.35626487822761E+015
3344417661372359
4248516799767487
4910408258938894
5769859433066471
6612113791127493
7523846119764316
8273669805269868
9.22709245833581E+015
9.87841079784529E+015
1.06290314521696E+016
1.14597740384044E+016
1.22162391307327E+016
1.28092370631288E+016
1.36809615570649E+016
1.4103691528942E+016
1.49927899431267E+016
1.58476009876873E+016
1.6441838649357E+016
1.68469467551308E+016
1.75509890096044E+016
1.78087110151662E+016
1.81705348588735E+016
1.87836695367563E+016
1.95244963298192E+016
2.02754180612528E+016
2.04952043510427E+016
2.02610726225155E+016
2.09845432057481E+016
2.13121859423406E+016
2.15498597545066E+016
2.17301518117234E+016
2.18592607603591E+016
2.22467647104479E+016
2.23882709518195E+016
2.29210003311007E+016
2.28668064514265E+016
2.25526236326616E+016
2.27348638358798E+016
2.27895890280998E+016
2.2889475786715E+016
2.27511574206184E+016
2.27665654844474E+016
2.23737484089003E+016
2.22513694191784E+016
2.22662461704615E+016
2.20905588219752E+016
2.16663943062244E+016
2.1371870051655E+016
2.08563197780222E+016
2.05681712740027E+016
2.07805191881511E+016
1.97561485997992E+016
1.92694663078229E+016
1.94030028610071E+016
1.88787744824591E+016
1.80150373871285E+016
1.7186597155259E+016
1.71063512504211E+016
1.6565421947516E+016
1.58347786449148E+016
1.49034763041734E+016
1.41836363566706E+016
1.35851836154707E+016
1.28297457273976E+016
1.26615321753892E+016
1.17487018008244E+016
1.07172470451948E+016
1.01800015092741E+016
9.11911203860584E+015
8348602584649480
7522464707145169
6681467788775935
5668892338941403
4995559949616551
4.03306956243518E+015
3404509110305240
2.44453360250745E+015
1510831500100734
1.58849168388225E+015
2.72584588510394E+015
3810856945352701
4759781152197320
5581456004316694
6629717946812516
7574320811617754
8299137386633111
9.44781740028998E+015
1.03457533131535E+016
1.10838881226509E+016
1.19744387911275E+016
1.30529324174808E+016
1.35524370522297E+016
1.43994023815304E+016
1.54051947411965E+016
1.61867732065243E+016
1.69549094644426E+016
1.75054378140089E+016
1.83506498119084E+016
1.87965981420381E+016
1.94038883819168E+016
2.01826154699153E+016
2.06269698624074E+016
2.11820143686133E+016
2.1667456931316E+016
2.25437684235645E+016
2.23980116818263E+016
2.34243304161795E+016
2.3895250435963E+016
2.37556923405928E+016
2.40082429040419E+016
2.42388325489302E+016
2.45211366149456E+016
2.49791280294473E+016
2.48787099582863E+016
2.53227101424146E+016
2.55486950785724E+016
2.56728451101137E+016
2.56526552333723E+016
2.57128706552325E+016
2.54888338650761E+016
2.53533491658905E+016
2.5839323041139E+016
2.51626079619391E+016
2.46431613963036E+016
2.49353832965077E+016
2.45569116596979E+016
2.4376796706663E+016
2.36639523743469E+016
2.35699100537357E+016
2.34413324176459E+016
2.25547488828449E+016
2.2145815326741E+016
2.16603727640383E+016
2.13548680501886E+016
2.08649978829373E+016
2.06067799856661E+016
1.98218542512996E+016
1.88408741875235E+016
1.82369489271017E+016
1.74168680126198E+016
1.66706926732623E+016
1.57255053646566E+016
1.53350260643112E+016
1.45429807418306E+016
1.3811026868283E+016
1.31438399940716E+016
1.23599768847968E+016
1.12902499154496E+016
1.03222870090462E+016
9.33238089450026E+015
8550040881190180
7408533586901955
6567944008151188
5541129382088528
4558608511929533
3.82192595672407E+015
2.77821559170415E+015
1.63192471346168E+015
1.72188478267906E+015
2.94920967936904E+015
4284167871592388
5291554168896023
6407788696421140
7171692164391072
8386272644148519
9.45715079067832E+015
1.03142110583497E+016
1.13691675389229E+016
1.25211948216185E+016
1.30662506519628E+016
1.43216359352397E+016
1.54788523704662E+016
1.64316020276407E+016
1.66203419543362E+016
1.77034579998382E+016
1.90969668346115E+016
1.95491138111091E+016
2.02334443701326E+016
2.10472380861555E+016
2.15840408616214E+016
2.1972253228438E+016
2.30639234059278E+016
2.33834193501509E+016
2.39972624447615E+016
2.48209739949732E+016
2.50177367411106E+016
2.54360568188574E+016
2.59537323426735E+016
2.65328630176235E+016
2.67455651401357E+016
2.74536276595393E+016
2.75088841643052E+016
2.75097696852149E+016
2.77988037101441E+016
2.81243211965532E+016
2.8439035327864E+016
2.86414654078236E+016
2.85158985428268E+016
2.83836017189162E+016
2.84076878876603E+016
2.80060156030161E+016
2.79102022405855E+016
2.78439652765392E+016
2.73385099412771E+016
2.72175477850108E+016
2.68346485436524E+016
2.68911447776919E+016
2.65539384152746E+016
2.59810063866926E+016
2.54518190910502E+016
2.49143078988566E+016
2.46652994190463E+016
2.40897108277352E+016
2.36450022268791E+016
2.3258206693518E+016
2.26232882012564E+016
2.16081270303655E+016
2.10879720480022E+016
1.99607039299421E+016
1.96601581331867E+016
1.88442391669804E+016
1.78701661663001E+016
1.66146037788413E+016
1.58878390578245E+016
1.53536397138332E+016
1.42859671529966E+016
1.34960470806994E+016
1.23744285860432E+016
1.16009260714121E+016
1.06628052196659E+016
9.43828919530151E+015
8259713995732847
7267027345530389
6251086916238961
5127573406836033
4.17677189566283E+015
2913912815908025
1.83042485162396E+015
1.9363685732616E+015
3.12498557994636E+015
4553667305253354
5755708808929316
6988513309008580
7990515639181183
9.18632307565279E+015
1.01787086487459E+016
1.13897647552827E+016
1.25554821912424E+016
1.38149940019585E+016
1.4680360455763E+016
1.54243574136826E+016
1.68365330292326E+016
1.78260672249965E+016
1.87707409314745E+016
1.9714174908679E+016
2.0619177278402E+016
2.14871648740992E+016
2.23094595908553E+016
2.33005345930021E+016
2.36912264183659E+016
2.44610982972673E+016
2.53637983126251E+016
2.60541504138346E+016
2.68923845069655E+016
2.72963591459749E+016
2.78512265479989E+016
2.84000724078368E+016
2.87684491062759E+016
2.92866559426378E+016
2.96364367019731E+016
3.00483810291699E+016
3.0130380265409E+016
3.06638180614179E+016
3.04840573167469E+016
3.09397463768834E+016
3.09053881655867E+016
3.08407451391779E+016
3.1108703766456E+016
3.14097808757572E+016
3.10941812235367E+016
3.10541556784179E+016
3.07208456080032E+016
3.06512436645001E+016
3.02173384187424E+016
2.99938329411318E+016
2.96362595977911E+016
2.94674793124005E+016
2.90583686521148E+016
2.87266525193376E+016
2.82362510395405E+016
2.77449640388337E+016
2.72593443719491E+016
2.63888773177047E+016
2.63297245209361E+016
2.53648609377167E+016
2.42871819906004E+016
2.38819676223173E+016
2.3005479025887E+016
2.20365420464829E+016
2.09498307860875E+016
2.00207422476204E+016
1.92239505330638E+016
1.84999486372854E+016
1.7821462516266E+016
1.67611929102346E+016
1.58374706284803E+016
1.43852517573932E+016
1.36617103324878E+016
1.26283959829479E+016
1.14672124140459E+016
9.97728806262344E+015
9006314385127057
7854375654522456
6852674401459155
5629681473059470
4440745678847209
3293730444500591
1.90657964985897E+015
2.19033597016626E+015
3.43403237743495E+015
4937115569575729
6196113778164200
7295824485514139
8698737552348586
9.9902166679052E+015
1.10671340670392E+016
1.25244712489844E+016
1.36975030876583E+016
1.53174573294625E+016
1.5992029448061E+016
1.66738451277008E+016
1.80449679938767E+016
1.92622050363633E+016
2.01900538455568E+016
2.13013825872421E+016
2.22439310435369E+016
2.32938046340883E+016
2.45282207822233E+016
2.5291008493847E+016
2.62006155723005E+016
2.66814534262727E+016
2.68851232355059E+016
2.80363004181281E+016
2.89609613520467E+016
2.98227503013759E+016
3.00522773211726E+016
3.10155469667545E+016
3.11772430848675E+016
3.15638615140466E+016
3.17983474509377E+016
3.22152506952289E+016
3.27775564728943E+016
3.32856683708856E+016
3.33919308800507E+016
3.34510836768193E+016
3.39861154104658E+016
3.37013318859032E+016
3.44766939944448E+016
3.42027138249807E+016
3.38577148785579E+016
3.40659893965215E+016
3.35662013950815E+016
3.33398622505598E+016
3.26128495836884E+016
3.27920790158136E+016
3.25223493467161E+016
3.20298226167357E+016
3.17544256138161E+016
3.14104892924849E+016
3.06376066424905E+016
3.00133144011454E+016
2.93830006176142E+016
2.89533458722232E+016
2.84315969522224E+016
2.69713729721116E+016
2.66996951570127E+016
2.58295823111322E+016
2.50122465114705E+016
2.42450311952982E+016
2.28161546553911E+016
2.21484718894702E+016
2.10497175447027E+016
2.01500283004379E+016
1.95549582491132E+016
1.82102061956285E+016
1.6906790258209E+016
1.60531835220855E+016
1.47127351002219E+016
1.37033298152442E+016
1.24024641780446E+016
1.10669215420209E+016
9.90931547759415E+015
8714623797468774
7477993847059562
5992001208476178
4888730707069206
3509407917269419
2.05690567949124E+015
2.50797232047903E+015
3.79645837536083E+015
5217046439553074
6722910167350336
8074463021421636
9.33801280748601E+015
1.07905504661006E+016
1.19867829526088E+016
1.31793139617145E+016
1.46465866882667E+016
1.60574163120339E+016
1.72888925307486E+016
1.80129121369452E+016
1.93762601295339E+016
2.0643440551328E+016
2.20292807750233E+016
2.33352470126627E+016
2.42342278401998E+016
2.52626718247363E+016
2.62337340543236E+016
2.70480590828924E+016
2.83575674041707E+016
2.85194406264656E+016
2.95972966777639E+016
3.06206046410241E+016
3.12859850525798E+016
3.21375019593564E+016
3.26013378118622E+016
3.28117375800091E+016
3.38095425410697E+016
3.44253337816816E+016
3.49109534485663E+016
3.56043163208688E+016
3.56526657625389E+016
3.56962333912966E+016
3.59712761858523E+016
3.67717870882297E+016
3.67234376465595E+016
3.62199304572987E+016
3.65946829062878E+016
3.66249677213998E+016
3.69487141659896E+016
3.65319880258803E+016
3.61834469958187E+016
3.56620522841818E+016
3.56815337441954E+016
3.53282109012214E+016
3.47572270186407E+016
3.46695604485795E+016
3.41533017582189E+016
3.38437236481845E+016
3.31974704882785E+016
3.24268901926494E+016
3.21474197935451E+016
3.14769033607131E+016
3.04730768574665E+016
2.98758815559585E+016
2.87482592295345E+016
2.77651539155751E+016
2.71939929288125E+016
2.64179224035432E+016
2.51431265019255E+016
2.41570104168731E+016
2.30164594851674E+016
2.19380721213232E+016
2.07424417890335E+016
1.97318853268732E+016
1.83033629953299E+016
1.70381307195371E+016
1.59522518487968E+016
1.46540250639082E+016
1.36001843396812E+016
1.19956381617059E+016
1.06745118060923E+016
9.33094635062653E+015
7972628116805052
6727036694789582
5261411037129514
3755565019750444
2.25891070941416E+015
2599269526270073
4.12822763939256E+015
5706739502622384
7120774712082781
8635157151031449
1.01361328034071E+016
1.15335025093468E+016
1.33212452531228E+016
1.42299668106666E+016
1.57499457417646E+016
1.72213804165924E+016
1.85670711222414E+016
1.98655989842393E+016
2.11226844676628E+016
2.21112800112624E+016
2.36862675012716E+016
2.46493600426715E+016
2.56917952575815E+016
2.68087913330889E+016
2.78719477372861E+016
2.89790259786048E+016
3.06345958713975E+016
3.10839091809841E+016
3.20160084905442E+016
3.33527908558416E+016
3.38796757971187E+016
3.46373274874661E+016
3.51367612805422E+016
3.58072777133742E+016
3.64804507089353E+016
3.70703847389837E+016
3.7206400750715E+016
3.76665174154001E+016
3.88114959516543E+016
3.85012094248922E+016
3.91180632905957E+016
3.91332942502428E+016
3.9041200075633E+016
3.92951674725376E+016
3.9217950049211E+016
3.96589394622463E+016
3.9144806022069E+016
3.9461645403563E+016
3.91460457513426E+016
3.91699548159047E+016
3.86676873559175E+016
3.82383868188904E+016
3.80164752789172E+016
3.75289074660312E+016
3.70992527206402E+016
3.66171751373944E+016
3.58720978439649E+016
3.53783313847109E+016
3.43651183598214E+016
3.37301998675597E+016
3.29929151581357E+016
3.2129532271169E+016
3.10832007642563E+016
3.00455473622588E+016
2.90732454033979E+016
2.81345932391059E+016
2.75845076499944E+016
2.59601080932234E+016
2.50907036640707E+016
2.36527948108845E+016
2.24488405820436E+016
2.11012548616478E+016
1.94538317612244E+016
1.86251612939183E+016
1.7085452956952E+016
1.56866309967204E+016
1.44403842892317E+016
1.29263206378105E+016
1.12345683606471E+016
1.00658401535944E+016
8395783138718798
7131223858817353
5631912985751937
4.11809728018548E+015
2.35502514895402E+015
2750303972630112
4547769735994689
6119250563201422
7602905426583175
9.3734159334562E+015
1.09488993151748E+016
1.22925356123133E+016
1.38659114542668E+016
1.50082865590466E+016
1.69554407769884E+016
1.85288166189419E+016
1.9854264316595E+016
2.14597137258982E+016
2.28014550082899E+016
2.37386903391264E+016
2.4977179883446E+016
2.68932700278752E+016
2.7625418716023E+016
2.93183575912054E+016
3.01263068692243E+016
3.16911994208628E+016
3.21364393342647E+016
3.32160664273824E+016
3.41201832761958E+016
3.54192424507395E+016
3.6767713692045E+016
3.70315989231384E+016
3.79429770434113E+016
3.79948685687203E+016
3.9105134685314E+016
3.9318368120372E+016
4.00965638958247E+016
4.08333172927029E+016
4.13099046463085E+016
4.10152032875572E+016
4.18353727541301E+016
4.20849125464862E+016
4.20811933586654E+016
4.24414232647352E+016
4.22809668758959E+016
4.26013483410287E+016
4.24175142001731E+016
4.21724020123655E+016
4.18311222537635E+016
4.13125612090377E+016
4.08761765047328E+016
4.07552143484665E+016
4.04149972149562E+016
4.02290378239172E+016
3.96132465833053E+016
3.90566081394619E+016
3.86953156083005E+016
3.74816206494527E+016
3.69106367668721E+016
3.61335036165111E+016
3.52602028953557E+016
3.42668255388436E+016
3.36492632564123E+016
3.22170217370483E+016
3.11234034135571E+016
3.02966810922524E+016
2.92097927276751E+016
2.7896388114394E+016
2.6711029824657E+016
2.51410012517422E+016
2.37312519634848E+016
2.25035657742637E+016
2.12921731697812E+016
2.00033860377901E+016
1.85020738874687E+016
1.6601444938123E+016
1.54435377965869E+016
1.39269238449458E+016
1.21792420671251E+016
1.04745080534253E+016
9.21922903265759E+015
7385580884922286
5921797110754415
4284362686192524
2571658984305332
2708489675273633
4718498167386666
6412924717697455
8315395550535377
9.95433536064377E+015
1.16731137359716E+016
1.33727648596496E+016
1.48484323244258E+016
1.61889515879621E+016
1.80486871816975E+016
1.92471511808982E+016
2.11113498000185E+016
2.28820374110735E+016
2.42576055922161E+016
2.54670500506972E+016
2.6817646542186E+016
2.8365891300722E+016
2.9426214038008E+016
3.06076760357424E+016
3.2071442099492E+016
3.35566377692567E+016
3.42492922248314E+016
3.52841119599178E+016
3.63254845497361E+016
3.78354748049726E+016
3.82752244887343E+016
3.93849592927822E+016
4.05811209376177E+016
4.09502060527846E+016
4.16185972354332E+016
4.26805139103568E+016
4.28482315706557E+016
4.35538146315122E+016
4.40112747334681E+016
4.4502207525811E+016
4.42990690291237E+016
4.49189336659202E+016
4.47149096483232E+016
4.54541425037486E+016
4.51893717517455E+016
4.50785045338499E+016
4.50076628610731E+016
4.5203185877937E+016
4.43142999887707E+016
4.43647746806241E+016
4.38003436527753E+016
4.33878680130326E+016
4.29769863109275E+016
4.27533037291349E+016
4.23023964819108E+016
4.17767512699073E+016
4.09259427798585E+016
4.01537685465919E+016
3.94974204483153E+016
3.87096610470378E+016
3.73957251212109E+016
3.60984369884866E+016
3.53703616965235E+016
3.42255602644512E+016
3.32061485931937E+016
3.21272299168037E+016
3.07902704473244E+016
2.94958159815112E+016
2.80674707541499E+016
2.66605551328036E+016
2.52722354505611E+016
2.40275472598736E+016
2.26831494147527E+016
2.1338220257086E+016
1.92921356431115E+016
1.81471571068572E+016
1.64773303274181E+016
1.45926053336108E+016
1.31572999118991E+016
1.15027926441981E+016
9.94818984553039E+015
8014035074543065
6420115147484296
4643016365043035
2765304696840589
2887152374016607
5009267813298853
6791892246216700
8605368227628824
1.03216848548276E+016
1.23552304927207E+016
1.41912518364941E+016
1.59327703887832E+016
1.72226555667023E+016
1.88532714802595E+016
2.06793927002622E+016
2.23976574734624E+016
2.38886975812311E+016
2.55497577036641E+016
2.7019013997054E+016
2.88061722970295E+016
2.99872800863999E+016
3.11625434377663E+016
3.26789094435527E+016
3.3775007225591E+016
3.55063777082549E+016
3.63477996766608E+016
3.76796231248638E+016
3.90883097880295E+016
4.0211504509905E+016
4.09073468407546E+016
4.2472593600757E+016
4.19274669287399E+016
4.32267032074655E+016
4.40546652580438E+016
4.4483788690889E+016
4.55867935360231E+016
4.576070984269E+016
4.69214506511372E+016
4.67470030319244E+016
4.72924839123054E+016
4.78494765645126E+016
4.72294348235341E+016
4.79104004031006E+016
4.76906141133108E+016
4.74237181111243E+016
4.79187242996519E+016
4.77092100524147E+016
4.73734205234528E+016
4.74408972167727E+016
4.6976707155903E+016
4.63463933723719E+016
4.54456415030154E+016
4.54782286724927E+016
4.49966824017927E+016
4.3914044537582E+016
4.37427847936442E+016
4.26112661752175E+016
4.13977483205517E+016
4.05478253514126E+016
3.97083515290081E+016
3.80814725136899E+016
3.78384855760656E+016
3.64106716612502E+016
3.50241230208271E+016
3.39875322439213E+016
3.2991852533044E+016
3.18677722902589E+016
2.96157155126859E+016
2.86549253256511E+016
2.69040733829737E+016
2.54374736523129E+016
2.38821447264993E+016
2.22458791895382E+016
2.08276289005476E+016
1.89021522344754E+016
1.73079489407255E+016
1.58656833246636E+016
1.39459625445046E+016
1.21108621424773E+016
1.06896187928119E+016
8506189885741369
6822903188474724
4879786945881142
2848951001971742
2.89818596455159E+015
5263837364422119
7270162089550761
9.21106452987007E+015
1.08579740281659E+016
1.27130694923343E+016
1.49361166049052E+016
1.67948249943853E+016
1.84808213856357E+016
2.02100666181162E+016
2.21072066150777E+016
2.39632584418287E+016
2.52052900697871E+016
2.70177742677804E+016
2.8780315086466E+016
3.03322790328227E+016
3.18296948911414E+016
3.30146989725145E+016
3.49001500934678E+016
3.59312506407335E+016
3.7243238420559E+016
3.85394639281916E+016
3.98307305187299E+016
4.11632623836606E+016
4.23087722324608E+016
4.31000737173771E+016
4.45514424883909E+016
4.48658024113377E+016
4.59201036064377E+016
4.69338479438731E+016
4.72917754955776E+016
4.81455947567194E+016
4.83065824581046E+016
4.89073198432515E+016
4.94740532254655E+016
4.98812157397499E+016
5.02621668351069E+016
4.99439106201574E+016
5.05674944447747E+016
5.06544525981082E+016
5.05646607778637E+016
5.02003574756092E+016
5.03331856120656E+016
5.02209015607145E+016
4.95969635277332E+016
4.95087656451261E+016
4.91046139019348E+016
4.79468838645806E+016
4.77749157039151E+016
4.72496247002754E+016
4.67636508250269E+016
4.60371694707013E+016
4.52106242535785E+016
4.40861898024295E+016
4.2628091072502E+016
4.17648852897172E+016
4.02623334101223E+016
3.95553335158103E+016
3.84454216075805E+016
3.73261231777078E+016
3.59709219774885E+016
3.44361371367801E+016
3.34301853833502E+016
3.12595965294704E+016
2.96180178670511E+016
2.84765814144357E+016
2.68295125223761E+016
2.53179283295021E+016
2.36249894543197E+016
2.15808529863464E+016
2.01445380707977E+016
1.84857803027301E+016
1.65934929603538E+016
1.49130399299982E+016
1.29306951111045E+016
1.10029515115035E+016
9.14883012033569E+015
7074444258086784
5181838128183027
3054073065496833
3.25923054985831E+015
5640484828157924
7557230258060362
9.75291477452127E+015
1.17070468972316E+016
1.36755598795157E+016
1.56152580113978E+016
1.78069399733468E+016
1.94159314662888E+016
2.1240812957018E+016
2.3050994800646E+016
2.48990769392096E+016
2.65753680212895E+016
2.87100047262351E+016
3.04760876285595E+016
3.18576773518882E+016
3.37716422461341E+016
3.46591113018449E+016
3.67978214029751E+016
3.83085200749394E+016
3.91892591717364E+016
4.05449916845015E+016
4.15778632735866E+016
4.3261946939672E+016
4.43936426622806E+016
4.50701806372986E+016
4.6726990259365E+016
4.73944959211039E+016
4.77970537266578E+016
4.94646667038226E+016
4.97067681205372E+016
5.01103885511827E+016
5.14113958717278E+016
5.13995298915377E+016
5.16740413735476E+016
5.23426096603782E+016
5.27481782370252E+016
5.30636007850637E+016
5.29081033133187E+016
5.3065726035247E+016
5.28967686456744E+016
5.33498011430817E+016
5.32033359846158E+016