/*--------------------------------*- C++ -*----------------------------------*\
| =========                 |                                                 |
| \\      /  F ield         | OpenFOAM: The Open Source CFD Toolbox           |
|  \\    /   O peration     | Version:  v1806                                 |
|   \\  /    A nd           | Web:      www.OpenFOAM.com                      |
|    \\/     M anipulation  |                                                 |
\*---------------------------------------------------------------------------*/
FoamFile
{
    version     2.0;
    format      ascii;
    class       volScalarField;
    object      dnp6_s;
}
// * * * * * * * * * * * * * * * * * * * * * * * * * * * * * * * * * * * * * //

dimensions      [0 -3 -1 0 0 0 0];

internalField   nonuniform List<scalar> 
6400
(
106563897784020
173021532333096
234075534941442
296287950077284
376190896223471
438285829595446
483642786799239
555694035060341
610211923860056
678372514788062
715908467540574
808184571889305
835348260804946
879859031790619
957084769633197
998303934442066
1.08454189948576E+015
1.08923058609774E+015
1.17217694496463E+015
1.1883386254533E+015
1.27602129867428E+015
1296485351866714
1297273855597170
1335227874085964
1.40094357425242E+015
1.39795890241365E+015
1.45607003975685E+015
1.46693974890018E+015
1.51370489967897E+015
1.54640399062184E+015
1.65772060787111E+015
1.58234705999941E+015
1.61799907095298E+015
1.64267553333631E+015
1.67678758062838E+015
1.62447115190833E+015
1705120795211343
1.66047243297069E+015
1.67065947781047E+015
1638500167944831
1.73095090734796E+015
1.65555619159087E+015
1.71184689079127E+015
1.63828319711967E+015
1631361298599964
1619771881353665
1.6463746213067E+015
1632070422760240
1561337933758397
1.60908739120742E+015
1535084463914155
1.59196257193389E+015
1.49338372971286E+015
1.46980270539801E+015
1.42606456222876E+015
1.40116054507758E+015
1.35568134333571E+015
1.33888991825694E+015
1268797757787884
1232029140880447
1.18024720126627E+015
1141028401625944
1.09310960109387E+015
1.04281999739908E+015
1.00812054128768E+015
932143708682599
917712502823851
815476908403187
813534754919446
733504272263837
679071055005648
618223968476904
540638376582843
495308408432911
425529532667499
398355789006302
307554557071518
242578674499138
187891442616372
107250266467511
161728465482135
253325080710124
373334819288389
488800342072409
574268854482492
682315033440342
751131828815172
858659394581178
989397546667855
1.02372127281374E+015
1.11712456705903E+015
1.21390413902265E+015
1.34313937124725E+015
1.36148134393021E+015
1.47382460362047E+015
1596794141772189
1.65404797975745E+015
1.74256149247964E+015
1775937955754711
1.86444088453421E+015
1.90588231213959E+015
2.01872830910766E+015
2.02031590051127E+015
2072510613890375
2179683617576244
2.20397905802271E+015
2.26865223983414E+015
2279310270123655
2414223787601807
2382805353724511
2.44586448427561E+015
2.41194294795196E+015
2.5711307379912E+015
2.47438291785566E+015
2.52857270443196E+015
2534097522516497
2575184388041733
2.57105135842102E+015
2627569612389275
2.60295136169074E+015
2.6390214383806E+015
2.64868987002854E+015
2.62323019588609E+015
2570506285372451
2.52234934612984E+015
2506378176609595
2552211940431603
2.46224313558944E+015
2.47464751642292E+015
2.44640426535283E+015
2421479080316271
2392039843722133
2358912103100291
2.27693946696094E+015
2.20496865666429E+015
2.14215295679508E+015
2.08914857180013E+015
2.02578779888235E+015
2.00336571629213E+015
1.89947902681172E+015
1821406573553891
1.75153138390999E+015
1.67367590147732E+015
1573154905772546
1.55624176535283E+015
1.48510708652874E+015
1380627696257654
1.28996564316925E+015
1.19609136347423E+015
1160058330583794
1.04753514386778E+015
940208673012901
825573989730099
747131098478093
672900616416979
562197867843767
469685741573034
361994124695321
302123936076928
156919651120623
220161354683134
356935529286309
481166144209619
652293679998216
736732374784496
871259578354438
993969809910231
1.1305661742762E+015
1280260167721895
1.34730415269603E+015
1.45677916391713E+015
1.57833045374829E+015
1.74302718595803E+015
1.80354617026336E+015
1.99513670085013E+015
2.10940094613875E+015
2.17550825218477E+015
2.26808070692884E+015
2378349513851733
2.50119204469116E+015
2525619784421259
2.69213695477379E+015
2669878923295285
2.756714881101E+015
2883039529085666
2.93777968068188E+015
3024620930458950
3175674960540396
3166107076348017
3.15853426535283E+015
3.21847113281018E+015
3.31901858837168E+015
3331163662609238
3.35453300807027E+015
3386649982165151
3.43282772412461E+015
3459324624650734
3476983933030140
3.37481184226562E+015
3420243416265382
3399535932391058
3454064405133463
3451561302687117
3457514770450627
3377320236683312
3.32559650875394E+015
3335635378396052
3.28327132193389E+015
3230102885827240
3235511280542179
3.22114887031092E+015
3146225140003567
3.11449977178824E+015
3.02121290091255E+015
2.92800011763569E+015
2.86326343216812E+015
2731863783663278
2736044441026098
2667571623788716
2.55042325411688E+015
2393950245377801
2367352797396112
2.26238654576125E+015
2.09186864507164E+015
2031910609728910
1.96876680763629E+015
1.82800036985019E+015
1.7185729863712E+015
1.57606549001248E+015
1.52968136117056E+015
1414099415016943
1299237176966292
1.105064164363E+015
1.06032583860948E+015
886558667513822
751867412832174
652600614336246
489338006361096
375067410706855
222106683349682
267172582129481
432211175688128
630850612106890
804215593380298
958958127489448
1105503397984662
1.26164301252898E+015
1402435910171809
1618316589233696
1.73979379146602E+015
1.84511460518102E+015
2.01472757877058E+015
2.1087288657779E+015
2.3345902027971E+015
2443853535164378
2.58728183453719E+015
2.71284443864812E+015
2818858500609357
3.00359592830391E+015
3.06641692014446E+015
3.25284248669817E+015
3.33241256784674E+015
3.36522808215921E+015
3.50791021357232E+015
3.59159744842756E+015
3732951295032994
3673421909369241
3.80129181298674E+015
3.90814200642055E+015
3.91823908774746E+015
4.07949603858272E+015
4.09918746395874E+015
4.08909567460317E+015
4205614299684917
4.19834842302776E+015
4244727259898341
4293990221152131
4.30771759482195E+015
4253903538211164
4251421603650199
4.28807379718804E+015
4.32447726807265E+015
4.29360919921527E+015
4189129808944177
4200317036368230
4121715385975863
4079887644462279
4.11271903468878E+015
4062646401819154
4009710812451697
3.96626901967778E+015
3.91593708021223E+015
3843452948695083
3738809507312288
3.65697975439926E+015
3569350000891742
3.49107116075144E+015
3.37080052798585E+015
3259055261057607
3.18752368438262E+015
3.02869045642352E+015
2.91705102892218E+015
2770283495630462
2652759395993104
2.5769783663278E+015
2411482546444920
2.2829564383806E+015
2.19577650243743E+015
2007625753225135
1.88222720022591E+015
1.75202882921646E+015
1.59970472601213E+015
1.42402186128946E+015
1276989729430474
1128179495199453
935218344034243
798918330063611
621833092934427
437104661591166
272096761466322
314122951905356
574459365450925
725883833526544
940245716812318
1.11986580821592E+015
1.34001181618215E+015
1515197235598359
1.70298283878782E+015
1.88353960911955E+015
2.07844820573985E+015
2268731619404316
2.37815371091196E+015
2.53009679217942E+015
2777512328488199
2.98369282407407E+015
3125173677991796
3278000518473931
3.42753575277926E+015
3.50834944719398E+015
3.67606789504191E+015
3.77647775934843E+015
3.92661098641579E+015
4051723772962368
4176439661658046
4329192414541347
4.43756140375126E+015
4.50171597237085E+015
4582905396751084
4647139344940847
4776660343618096
4782402132527792
4806946295627489
4923914738273587
4872540280453005
4979242298689138
5000362556328399
5043730261503478
5180628268236133
5157549981199097
5204897248825872
5142690125661375
5173415311292433
5162132828384162
5068867125393853
4919067292521253
4986021313982522
4981877700419118
4871788820521966
4927629702158016
4791149761161643
4768685342800665
4579269812436835
4564743351093870
4617387882037334
4455919252348255
4.32390573516735E+015
4221109191784079
4.05470844480114E+015
3909544378827061
3824624114648356
3.68040201957375E+015
3441093783366030
3311509281032637
3.16716547061709E+015
3.04552421727305E+015
2.90299026105761E+015
2765197911167588
2667291149307413
2398691851703228
2.26432869924499E+015
2059021378931098
1.86177902294751E+015
1732332111869092
1.48412807182986E+015
1.28054593417454E+015
1.11936307093811E+015
937652650853100
753153361869092
513143410260983
313212732833958
378826827150585
644609737604780
879821987991201
1.12599391103383E+015
1.2936012274835E+015
1.52984012031092E+015
1749578646483562
1.99609454766363E+015
2.19587704989299E+015
2.40429604935795E+015
2.59886595981214E+015
2.77315703607098E+015
2.98368753210273E+015
3.24948737686523E+015
3456419332382141
3.54277901276678E+015
3.79785732358362E+015
3915455510819808
4.03819220223233E+015
4304156098106533
4.48008239351109E+015
4589520360932762
4680081866565602
4857828600112954
4976908539325842
5137922059479222
5209675898950716
5320495070893525
5421942161583734
5533020640122465
5498516986950834
5605891085547827
5735650222935614
5788358257535225
5843923956661315
5886153887997146
5938332725462219
6030360107157719
6114978728969741
5941772506836692
5994586380863206
6000248790202723
5911237832174069
5922562650853100
5876734179002437
5881179434932524
5790792564354081
5725807156233279
5688816276529339
5595995099132037
5531433048718863
5416914788805658
5272227000252660
5238501266868795
5126168591121217
5018106536249331
4907297948249212
4711606139869805
4553101014134118
4.46895866974318E+015
4324657195098389
4082237279739611
3944889455442601
3692700560980322
3.55278083860948E+015
3406579546251709
3.26182296207122E+015
3012909797871708
2802321090155163
2633814138576779
2408566670233636
2.1785352597943E+015
1.96708925271981E+015
1.73088740369181E+015
1.50055964285714E+015
1.3230351721063E+015
1100105587212413
878366695871232
597442397003745
374922939889127
421358930050235
704065035669699
999330576883063
1.26948042209143E+015
1467257267180905
1.72406605262767E+015
1.9757363338981E+015
2.24816701875632E+015
2.47221850157541E+015
2757106486980560
2951724025176862
3176013646706497
3.42424414660246E+015
3.65028011867606E+015
3827471195232150
4087947316821235
4.21426138086321E+015
4.47992892634207E+015
4735351215296355
4912912729846619
5033961282399976
5244333019291362
5321341786308780
5429456760894120
5612664808869865
5834027970245526
6058407555288032
6124080919683728
6054121058498306
6270298087955533
6368199557844360
6439217813298853
6493090081594436
6531668552701978
6647456885738065
6689739736787349
6848922234855241
6832728802538493
6738849230872125
6793303616015695
6809655807472803
6839502525860531
6798172229653411
6802776244723857
6685400320284169
6648832798287854
6653278054217940
6600781698472147
6474038984751203
6386033501278162
6231984215415254
6145883841626538
6209334578057191
5903246955442601
5757823582872599
5797725046816479
5641082694994352
5382993252482017
5135450708860948
5111472786695202
4949840105894418
4731519828042327
4.45324151484751E+015
4238149339516081
4059328335785625
3.83359929805006E+015
3.783336154212E+015
3510577367130372
3202372955977647
3.04184100521669E+015
2724841337688009
2494608832337554
2.24775424499138E+015
1996459693686463
1.69389652398787E+015
1.49270106540931E+015
1.20510359067535E+015
1.01728623565781E+015
730440220854884
451444845542774
474650139892099
814497893704298
1.13870522620534E+015
1.42224905088877E+015
1667770061455918
1.98099655341537E+015
2.26324913709054E+015
2.47982835637001E+015
2.82306032585756E+015
3.09136856503775E+015
3311927346768920
3.5780288338981E+015
3.90028872094406E+015
4049543480768087
4.30262142641638E+015
4603157771089709
4836697758531003
5066221139721182
5230722068991142
5483276109476249
5616527947951965
5797989645383746
6030677625438441
6163453186493074
6329303568456098
6474356503031924
6736203245199453
6692650321027287
6999320060489863
7140033578562511
7098332844361215
7173796355745794
7242697822662148
7327051845906902
7463902224897449
7433896747369359
7566566468997086
7634092023363652
7671188742494502
7665155895160810
7683148597734974
7616205160216395
7575721579424528
7720933273140716
7518727048035195
7363513528476309
7450831055674454
7337741628024493
7283922279442363
7070920432792342
7042820064948577
7004400352981392
6739484267433564
6617292649069615
6472239714493787
6380953208786636
6234577281374472
6157420339159383
5922880169133821
5629757876315320
5449301653439153
5204256920293086
4981295583571131
4698868364841567
4582190980619464
4345523438113073
4.12681155438143E+015
3.9274524098597E+015
3.69322975811486E+015
3373589396884846
3084356703005171
2.78856725662862E+015
2.55479971441948E+015
2.21371099332679E+015
1.96253815736282E+015
1.65572024270257E+015
1.36213754837703E+015
1.14201270829618E+015
830146252972475
487628170419416
514508738868082
881240236311753
1.28013316040961E+015
1.58114578250401E+015
1914682860486891
2.14294146052553E+015
2505864855389097
2825849194756554
3081943564071696
3.39717042119969E+015
3.74140257327151E+015
3904268283395755
4.27938438023899E+015
4625167079914987
4909853970409012
4966250509036323
5289891600603412
5706279781968967
5841383810415552
6045865583199571
6289031666518042
6449431317995363
6565431329885261
6891628443612152
6987095606682124
7170515333511681
7416644920783543
7475438722430294
7600435085607275
7755119408031627
7928166871024314
7991723446881873
8203296461268652
8219807411866119
8220072010433387
8306436982789370
8403703416116758
8497741746923490
8558228979400748
8520708902562273
8481177876612567
8488374957642233
8368353047529872
8339723482551571
8319931509719992
8168898647523927
8132754483235241
8018342062748944
8035223451340586
7934464316925271
7763269043903453
7605144940104630
7444533609773496
7370128492657987
7198139423934367
7065258023452828
6949681369270555
6759964196540040
6456628399025027
6301203200612329
5964369224481303
5874564470750847
5630763350870934
5339704926877118
4964535910320433
4747374574192973
4587752842503419
4.26872634994947E+015
4032693844004518
3.69754800673266E+015
3466421158224838
3186105436062065
2.82021324527376E+015
2468048428155282
2171428142277510
1.8678594980233E+015
1.53214741981749E+015
1.24804264617145E+015
870693337420486
546941114455145
578597687042982
933763051914274
1.36066108837168E+015
1.71983776752274E+015
2.08820660090066E+015
2.38761046370608E+015
2.74492436894358E+015
3.04145469130848E+015
3403324983874323
3.75164782979609E+015
4127996955962784
4386573259838892
4608883684085369
5030849603248914
5326527918227215
5608801669787765
5890704983354140
6161124719101123
6420484234736341
6666190464300575
6962329180785923
7079070068664168
7309112063046192
7578843842518280
7785124885559716
8035593889334760
8156303755722013
8322101217971583
8486099409963735
8596172413946851
8751015495511562
8855531929582069
8978623183074727
9003125010403662
9.16251918732537E+015
9.10880567817014E+015
9.2449681008858E+015
9.23470167647584E+015
9.21538598106533E+015
9.29545350752036E+015
9.38541702039118E+015
9.29111409101718E+015
9.27915423577671E+015
9.17955933505737E+015
9.15876188767017E+015
9.02910858970929E+015
8962323911331073
8855479009868616
8805046522947505
8682801984870103
8583683361571844
8437148675019320
8290349389899531
8145243535610248
7885143143986682
7867467959693240
7579161360799001
7257144904434932
7136064600053504
6874164938172522
6584641185868854
6259925824118661
5982309007342013
5744223216515071
5527887427917484
5325152005677427
5008337557145829
4732324207686819
4.29839314131146E+015
4.08219494396885E+015
3.77343487582486E+015
3.42646677456751E+015
2981269101197907
2691136772189525
2.34693107997444E+015
2.04761718068189E+015
1.68218009942928E+015
1.32691947907378E+015
984184954892694
569696591240117
654484556135188
1026107951890494
1.47523755996968E+015
1851433218967362
2.18003288768504E+015
2599231105834968
2985132240280006
3306921141876226
3742381587970394
4.09289001805778E+015
4576941345044884
4778507241617620
4982237554470602
5391936684055644
5755653874621009
6032900253403483
6364971455323702
6646610170322811
6960318231674693
7329168634445039
7557093840288923
7828889488585695
7972566510611734
8033424181083169
8377402318530408
8653696142470720
8911203468135069
8979787416770702
9.26761773824386E+015
9.31593343662683E+015
9.43145717109565E+015
9.50152287170798E+015
9.62609587717734E+015
9.79411596739195E+015
9.94594262528982E+015
9.97769445336187E+015
9.99536963765531E+015
1.01552400919981E+016
1.0070145192765E+016
1.03018276982641E+016
1.02199609015516E+016
1.01168732997444E+016
1.01791068827656E+016
1.00297674514E+016
9.96213605760656E+015
9.74490063388027E+015
9.79845538389513E+015
9.71785866030557E+015
9.57068893719161E+015
9.48839878277154E+015
9.38562869924499E+015
9.15468706973426E+015
8968145079810950
8779803819630223
8651420594792223
8495519118958444
8059196081534985
7978017241097437
7718022688900778
7473798211313238
7244550012633018
6817593764490815
6618086444771417
6289772542506390
6020940398163010
5843130160959515
5441310776707686
5051842853575888
4796780418673088
4.39624698345818E+015
4094631076630402
3705925197372332
3.30685763822008E+015
2960958515174484
2.60397800413174E+015
2.23446610494323E+015
1.79044324921229E+015
1.46077989425421E+015
1.04863058193627E+015
614614844019381
749396062213899
1.13440285350158E+015
1.55888245905416E+015
2.00884290663456E+015
2412694407883003
2.79025010351644E+015
3224276425376018
3.58171733792581E+015
3938052228464419
4376481470483324
4798045199824623
5166017135351644
5382358215920575
5789734170085012
6168374719844242
6582471477617263
6972701444622793
7241321910112359
7548626686136376
7838785475001486
8082110317460316
8473398678734914
8521767296831343
8843836672908863
9.14960677724273E+015
9.34842614068724E+015
9.60286412297129E+015
9.7414608525058E+015
9.80432947208846E+015
1.0102479137685E+016
1.02864809813626E+016
1.04315868356519E+016
1.0638767513822E+016
1.06532145955948E+016
1.06662328451043E+016
1.07484171600975E+016
1.0987614264907E+016
1.09731671831342E+016
1.08227164377861E+016
1.09346945514535E+016
1.09437438224541E+016
1.10404810586469E+016
1.0915960972891E+016
1.08118149768147E+016
1.06560193404078E+016
1.06618405088877E+016
1.05562656805481E+016
1.03856525243743E+016
1.03594572662149E+016
1.02051963014981E+016
1.01126926423815E+016
9.91958860799001E+015
9.68933493475417E+015
9.60582762692468E+015
9.40547359179002E+015
9.10552465593603E+015
8927079382171095
8590139566613162
8296382237233219
8125716161345937
7893821976993044
7512905879555317
7218248915046668
6877445960406635
6555217825188751
6197956839664705
5895996954699481
5469146545984186
5091088113072944
4766621473975982
4378704098448368
4.06381063551513E+015
3584363323598478
3189603429121337
2788138606949646
2382265572647286
2.01007593595803E+015
1.57213884727424E+015
1.12218369166518E+015
674975069184353
776676174499138
1.23353735271387E+015
1.70520546675287E+015
2.12772704290767E+015
2.58023292870519E+015
3.02873279219428E+015
3446274623313120
3980462086825991
4251993136555496
4706171285298138
5145844140583199
5547943999316330
5935951338356816
6311575464449201
6606973304946199
7077588316687473
7365365718447178
7676851151834016
8010615784584745
8328292824445633
8659093953242970
9.15378743460555E+015
9.28804474763688E+015
9.56656119954224E+015
9.96599919668866E+015
1.01234353442126E+016
1.03498258783663E+016
1.0499059470305E+016
1.06994135054396E+016
1.09005613362761E+016
1.10768369017894E+016
1.11174792417217E+016
1.12549646572736E+016
1.159709060475E+016
1.15043752667796E+016
1.16886946287379E+016
1.16932457240949E+016
1.16657274730991E+016
1.17416143421913E+016
1.17185413471256E+016
1.18503114336246E+016
1.16966855054694E+016
1.17913588728375E+016
1.16970559434635E+016
1.17042001047797E+016
1.15541197974258E+016
1.14258424120147E+016
1.13595340110576E+016
1.12138460399203E+016
1.10854628150823E+016
1.09414153550621E+016
1.07187821205636E+016
1.05712419594554E+016
1.02684882787884E+016
1.00787711060579E+016
9.85846633895131E+015
9.60048273586588E+015
9.28783306878307E+015
8977776467659472
8687247240800190
8406772759497057
8242404129510730
7757024517715949
7497241644373105
7067586490844779
6707838278788418
6305172179121336
5812913004577612
5565301665329053
5105228260507697
4687252487738541
4.31486704810951E+015
3862456417796207
3356951438975090
3007728957924617
2.50870664400155E+015
2130849306001427
1.6828468878188E+015
1.23051034510433E+015
703694597675525
821806106132216
1.35889886191368E+015
1.82846606332858E+015
2271790378841924
2.80082875423578E+015
3.27159194117472E+015
3673077931231793
4143211373580643
4.48455940126925E+015
5066379898861542
5536513341210392
5932564476695797
6412281679151060
6813201428274180
7093252551869688
7463320108049461
8035858487902027
8254628583318470
8760488124219725
9001907856994233
9.46950644506866E+015
9.60254660469056E+015
9.92514517790262E+015
1.01953003150823E+016
1.05834664132632E+016
1.09863971114975E+016
1.10652474845431E+016
1.13375723299744E+016
1.13530778060163E+016
1.16848314896558E+016
1.17485468246537E+016
1.1981076045568E+016
1.22012220535343E+016
1.23436290024374E+016
1.22555705992509E+016
1.25006417922537E+016
1.25752056685096E+016
1.25740943545271E+016
1.26817330516913E+016
1.26337877913025E+016
1.27295195529398E+016
1.26745888903751E+016
1.26013480069556E+016
1.24993717191309E+016
1.23444227981392E+016
1.221402862419E+016
1.21778844599013E+016
1.20762256903573E+016
1.20206599912312E+016
1.18366581475537E+016
1.16703314881696E+016
1.15623752727246E+016
1.11997164764283E+016
1.10291033202544E+016
1.07968916176208E+016
1.0535944510582E+016
1.02391178378218E+016
1.00545867970097E+016
9.62662507431187E+015
9.299845843737E+015
9.05281662133642E+015
8728048339872778
8335595744902206
7981404102758455
7512270842993877
7091029923904642
6724190470245525
6362219630224124
5977122875423577
5528522464478925
4960603975610843
4614614889052375
4161442214865347
3.63922519053564E+015
3.12984119671839E+015
2754756851703228
2.20685259846323E+015
1.76946587479936E+015
1.28019137209441E+015
768425991171749
809311761785863
1.40991346568278E+015
1.91621753217704E+015
2.48468638606504E+015
2.97441070633434E+015
3.48799123342845E+015
3.99585643146959E+015
4.43679406790619E+015
4837348671006480
5393047998038166
5751155698977468
6308188602788179
6837279897895489
7248307312288210
7609696035461625
8013261770257415
8475885905267225
8792716229712858
9.14574363816063E+015
9.58312506985316E+015
1.00269097868736E+016
1.02338787861899E+016
1.05430886718982E+016
1.08542565870043E+016
1.13054500639082E+016
1.14368497124131E+016
1.17684446369122E+016
1.21258643815766E+016
1.22361490644135E+016
1.24358680629867E+016
1.27531746648535E+016
1.28032896334938E+016
1.30141217718923E+016
1.31508133917425E+016
1.32975068374354E+016
1.32368079261043E+016
1.34220269231912E+016
1.33610634132929E+016
1.35819502972475E+016
1.35028353256346E+016
1.34697075850128E+016
1.34485396996314E+016
1.3506963063284E+016
1.32413590214613E+016
1.32564411397955E+016
1.30877860130194E+016
1.29645360003864E+016
1.28417622651745E+016
1.27749246670828E+016
1.26401910766304E+016
1.24831253671006E+016
1.22288990636704E+016
1.19981691130135E+016
1.18020486549551E+016
1.15666617695143E+016
1.11740504154034E+016
1.07864135143571E+016
1.056886057235E+016
1.02267875445871E+016
9.92218167394923E+015
9.59979477959099E+015
9.20030386273111E+015
8813513677100053
8386716188098210
7966321984424231
7551484350662861
7179564604512216
6777851059687294
6375978755722013
5764597306194637
5422471358718268
4923517840422686
4360351541822722
3931474308082159
3437098345000297
2972574392277510
2.3946382016527E+015
1.91836607254325E+015
1.38735908380893E+015
826288405861720
862697168717674
1.4967970512306E+015
2.02945513502467E+015
2571331832902324
3.08417677597943E+015
3.6918115097943E+015
4.24042488719458E+015
4760800305496106
5146225162520063
5633462256257059
6179117421675286
6692544481600381
7138075549164734
7634409541644372
8073431484453956
8607444312912430
8960365881933296
9.3115411004102E+015
9.76463968699839E+015
1.00921597935616E+016
1.06095029122823E+016
1.08609244708995E+016
1.12588807160692E+016
1.16798041168777E+016
1.20154209395993E+016
1.22233424937578E+016
1.26910469212591E+016
1.25281600432495E+016
1.29163790611438E+016
1.31637787215386E+016
1.32920031872362E+016
1.36215871626241E+016
1.36735543212354E+016
1.40203901232091E+016
1.39682642054575E+016
1.4131256922894E+016
1.4297689421705E+016
1.41124175049046E+016
1.4315893803133E+016
1.42502204387373E+016
1.4170470430563E+016
1.43183810296653E+016
1.42557770086499E+016
1.41554412319422E+016
1.4175603642768E+016
1.40369010738066E+016
1.38485598136258E+016
1.35794101510017E+016
1.35891473782772E+016
1.34452586773973E+016
1.31217604690565E+016
1.30705871061471E+016
1.27324830568932E+016
1.23698771803103E+016
1.21159154754474E+016
1.18650760336781E+016
1.1378955545895E+016
1.13063496990369E+016
1.08797109691754E+016
1.04654025325486E+016
1.01556634497057E+016
9.85814882067059E+015
9.52226739938173E+015
8849340323108019
8562250877623209
8039086590422686
7600858443314904
7136117519766957
6647192287170798
6223411221835800
5648068097170203
5171711296519231
4740754318039950
4.16713108406159E+015
3.61879288917127E+015
3194117480678913
2.54169679336841E+015
2.03872137685037E+015
1.45810744872481E+015
851282386525771
865994066865822
1.57286384734855E+015
2.17236482120564E+015
2752317252913025
3.24442296028774E+015
3.79873579082694E+015
4462994618036977
5018387010730634
5522172098864515
6038880181023720
6605756151536767
7160354748528626
7531480698977468
8073061046459782
8599718034748231
9.06345348374056E+015
9.51088966098924E+015
9.86497546370608E+015
1.04283587331312E+016
1.0736457304857E+016
1.112848654212E+016
1.15158059248856E+016
1.19016435556745E+016
1.2299811479698E+016
1.26420961863147E+016
1.28785414660246E+016
1.33122185177754E+016
1.34061510091552E+016
1.37211820633434E+016
1.40240945031508E+016
1.41310452440402E+016
1.43861711825991E+016
1.44342752021283E+016
1.46137788701623E+016
1.47831219532132E+016
1.49047843744427E+016
1.5018614678081E+016
1.49235179530052E+016
1.51098482640747E+016
1.51358318433803E+016
1.51090015486594E+016
1.50001456980857E+016
1.50398354831758E+016
1.50062843848463E+016
1.48198482343499E+016
1.47934942170501E+016
1.46727314309494E+016
1.43267952641044E+016
1.42754102223411E+016
1.41184503522383E+016
1.39732386585221E+016
1.37561619939362E+016
1.3509185691249E+016
1.31731984305333E+016
1.27375104296712E+016
1.24795797462993E+016
1.20306088973604E+016
1.18193534012544E+016
1.14877055570418E+016
1.11532529680162E+016
1.07483113206706E+016
1.02897090838832E+016
9.98912511146781E+015
9.34054110338268E+015
8850028279382913
8508960726175613
8016807391058795
7565137636733844
7059278095832590
6448478763153201
6019299887045954
5523653850841210
4958227880476784
4456099179373997
3863763534718506
3287743037720706
2.73372126560549E+015
2.11388324586826E+015
1.54836202001962E+015
912573998647524
973876194711967
1.68540820194994E+015
2.25814238474229E+015
2.91422511622377E+015
3.49813065052613E+015
4.08633326556091E+015
4665925843216812
5320812589174246
5801588185898578
6346872913322632
6887765304530051
7439982514416503
7940867602253136
8578708908507222
9.10642429106474E+015
9.51925097571488E+015
1.0091154319006E+016
1.03563350031211E+016
1.09953934627846E+016
1.14467986185423E+016
1.17099683535462E+016
1.21150687600321E+016
1.24236965288925E+016
1.2926910084121E+016
1.32650670530884E+016
1.34672203584805E+016
1.39622842778372E+016
1.41617386778432E+016
1.42820251865228E+016
1.47803172084002E+016
1.4852658456691E+016
1.49732624836514E+016
1.53620106986802E+016
1.53584650778788E+016
1.54404906337316E+016
1.56402625520183E+016
1.57614486958266E+016
1.58556987054872E+016
1.58092351970751E+016
1.58563337420486E+016
1.58058483354141E+016
1.59412169624279E+016
1.58974523594019E+016
1.56449724065157E+016
1.56627005105226E+016
1.55987734966708E+016
1.54336110709827E+016
1.5224736961982E+016
1.52056858651388E+016
1.4879382911985E+016
1.46088044170977E+016
1.43807733718269E+016
1.40796602022769E+016
1.37428791458593E+016
1.34716126946971E+016
1.317912543844E+016
1.28629830702693E+016
1.2417928280126E+016
1.2137930076244E+016
1.1601641700107E+016
1.11874391029071E+016
1.0875106954105E+016
1.02832528788419E+016
9.89307583154985E+015
9.39610680250877E+015
9.01482026707687E+015
8418626775310623
7927320155609061
7402832875572200
6798172229653411
6447632047737946
5825878334373698
5167742318010225
4647276936195827
4.09769512803936E+015
3498982657912728
2872323287111349
2.21696026373283E+015
1.61049505558528E+015
962588419832352
1.04453988808632E+015
1.70888867880923E+015
2386425062124725
3039888267790262
3716990709455442
4.35056139483384E+015
4913267291926758
5492166621336424
6018347332203792
6648515280007134
7344991628767612
7742312837375898
8406772759497057
8962429750757980
9.4515137424945E+015
9.928690798704E+015
1.05369499851376E+016
1.09343241134594E+016
1.14245194191784E+016
1.1940222026782E+016
1.23276472489745E+016
1.27875195588847E+016
1.323934807235E+016
1.34717714538375E+016
1.37963280564473E+016
1.42527076652696E+016
1.4564140178943E+016
1.50175033640984E+016
1.5085611035313E+016
1.5477058155728E+016
1.57017023393377E+016
1.5904808199572E+016
1.60843647873194E+016
1.61152698999762E+016
1.62602699148386E+016
1.6318322840497E+016
1.66520874732477E+016
1.66947407622912E+016
1.67271276269247E+016
1.6728450619761E+016
1.68508539169788E+016
1.66737845557636E+016
1.67014086461863E+016
1.64172827046549E+016
1.64325235821295E+016
1.63283775860532E+016
1.61778739209916E+016
1.59601622198442E+016
1.59770965281493E+016
1.55829505023483E+016
1.54038701920219E+016
1.49951183253077E+016
1.49044139364485E+016
1.46121912787587E+016
1.42579996366149E+016
1.39549284376672E+016
1.34898170761251E+016
1.29689283366031E+016
1.25640396089709E+016
1.21803716864336E+016
1.19905486742762E+016
1.12851818136555E+016
1.08403387023661E+016
1.04097309939956E+016
9.88476743653766E+015
9.37896081534986E+015
8916283760626597
8215573834789845
7832805547381249
7332555496106059
6760757992241840