/*--------------------------------*- C++ -*----------------------------------*\
| =========                 |                                                 |
| \\      /  F ield         | OpenFOAM: The Open Source CFD Toolbox           |
|  \\    /   O peration     | Version:  v1806                                 |
|   \\  /    A nd           | Web:      www.OpenFOAM.com                      |
|    \\/     M anipulation  |                                                 |
\*---------------------------------------------------------------------------*/
FoamFile
{
    version     2.0;
    format      ascii;
    class       volScalarField;
    object      dnp7_s;
}
// * * * * * * * * * * * * * * * * * * * * * * * * * * * * * * * * * * * * * //

dimensions      [0 -3 -1 0 0 0 0];

internalField   nonuniform List<scalar> 
6400
(
100725900697045
163542719876444
221251939713255
280056109600103
355581652361631
414274776606127
457146898049066
525250890380080
576782070898480
641208551686384
676688134623387
763908984429186
789584537681073
831656830375721
904651833026177
943612846912589
1.02512635086598E+015
1.02955817244813E+015
1.10796039759329E+015
1.1232366765006E+015
1.20611574173157E+015
1.22545869213582E+015
1.22620399847413E+015
1.26207874383211E+015
1.32419427476567E+015
1321373115203218
1376300691719676
1.3865749146652E+015
1430778083199572
1.4616857869875E+015
1.56690403414383E+015
1495659751079999
1.5293586020946E+015
1552683189044448
1.58492644177417E+015
1.53547611653588E+015
1611707449393615
1.56950510324396E+015
1.57913406097041E+015
1548736566890593
1.63612248454313E+015
1.56485819325545E+015
1.61806506252105E+015
1.54853148259616E+015
1541988793398133
1.5310342908418E+015
1556179626161742
1.54265906889701E+015
1.47580158891168E+015
1520935139854943
1.45098638928522E+015
1.50474848676258E+015
1.41157018830628E+015
1.38928102694053E+015
1347939034416305
1.3243993590601E+015
1.28141169012445E+015
1.26554016655768E+015
1199287935343717
1.16453365052117E+015
1.11558853293502E+015
1078518296202168
1.03322467946813E+015
985690141663199
952891660721717
881077143278243
867436536670432
770801817544538
768966063006559
693319970696352
641868823073341
584355183624636
511020041168777
468173430211244
402217320710223
376532263552008
290705486742762
229289243232665
177597996923488
101374667355290
152868332453976
239446918274280
352882042759051
462021901789430
542808106805977
644935083377920
709981819105087
811618594192775
935194386728890
967637721697085
1.05592400942275E+015
1147401608852030
1.269556817495E+015
1.28689394345857E+015
1393082589471494
1.5093153638557E+015
1563432607306343
1647096995323306
1.67864496227434E+015
1762299346179379
1.80147044641619E+015
1.90813428774548E+015
1.90963490453401E+015
1958970182485187
2060271819823435
2083236258744030
2.14436638465311E+015
2.15444052536016E+015
2.28196294005014E+015
2.25226573380497E+015
2.3118702326457E+015
2279807053930602
2.43027389931732E+015
2338826312223807
2.39004736527258E+015
2.39526951169669E+015
2434105474184055
2430198868477894
2483620826149852
2.46035126181559E+015
2494445275251174
2503584031493371
2479519140261181
2429683656713830
2384164947461506
2.36906874256881E+015
2.41239154925391E+015
2.32735159584745E+015
2339076415021897
2.3123804423538E+015
2.28882075877375E+015
2260994321458296
2.22968145113747E+015
2152199604289281
2.08417164320889E+015
2024797238942393
1.97469664642907E+015
1.91480703039851E+015
1.89361331928839E+015
1.79541795870242E+015
1.72162262709807E+015
1.65557548017855E+015
1.58198523286864E+015
1486971179874363
1.47098460902047E+015
1.40374697278204E+015
1.30499138192834E+015
1.21929615919089E+015
1.13056468848463E+015
1.09650568944078E+015
990146973525157
888700276564017
780345740319640
706200264797971
636036425821889
531398417157125
443954475655431
342162636832927
285572376914769
148322964201494
208100033972911
337381171539048
454805935858946
616558419906664
696371224833046
823528489437806
939516163079880
1.0686292315657E+015
1.21012238855696E+015
1273493435536928
1.37697096721856E+015
1.491863190605E+015
1.64753717624794E+015
1.70474068822702E+015
1885835122267800
1.99383951459485E+015
2056325197669580
2143826162609238
2.24805400268514E+015
2.36416672772625E+015
2387256218045895
2544650910939698
2.52361226356439E+015
2.60569099984147E+015
2.72509507770545E+015
2.77683634457424E+015
2.85892008290728E+015
3.00169876828072E+015
2992655051101797
2985497109020470
3.04215039484375E+015
3137189458117829
3148669176550145
3170758255677427
3201115733309554
3.24476367363217E+015
3269808967832867
3.28650082857737E+015
3.18992613412302E+015
3232868784555020
3.21329573957652E+015
3.26483692420684E+015
3.26247095173692E+015
3268098264693934
3.19229710864891E+015
3143407013678338
3152895913837861
3.10340057009591E+015
3053144913847770
3.05825701504072E+015
3.04468143516041E+015
2973862326853338
2943875001362384
2855698758867884
2.76759254515685E+015
2.70640239457622E+015
2582201345044884
2586152969254701
2.52143136716505E+015
2410700854338822
2.2628000636605E+015
2237659730396528
2138443950394348
1.97726770319343E+015
1920594409146305
1.86090987741018E+015
1.72785518882647E+015
1.62442267564849E+015
1489722310653350
1.44587929014823E+015
1336629385886689
1228059761235955
1.04452432388582E+015
1.00223694278481E+015
837989433223352
710677104883776
616848539152448
462530110675148
354519715880942
209938789744466
252535798109506
408532916567584
596290089149476
760157442457841
906422560836653
1.04493949453065E+015
1192525155683372
1.3256048545469E+015
1.52965872545231E+015
1.64448092005529E+015
1.74403183780691E+015
1.90435273343836E+015
1.9932042534877E+015
2.20669200193706E+015
2309969451380219
2445540174112716
2.5642239559182E+015
2664430143000812
2.83904691457107E+015
2.89842632089353E+015
3074638748315597
3.14984966175713E+015
3180867410776212
3.3157328436181E+015
3394835356597903
3.52844527339338E+015
3472177145879159
3593041824083982
3.69403833600856E+015
3703582258783663
3856004908051443
3874617558285278
3.86507863756614E+015
3.97521390573291E+015
3968346082897370
4.01218410134653E+015
4058748240294869
4071723573459762
4020857666384281
4018511702138200
4.05315594172958E+015
4087565084690763
4058388092265620
3.95963250141193E+015
3.97020684771516E+015
3895911310514634
3856375060192616
3887407815379585
3.84007836186909E+015
3.79004279608327E+015
3.7489809186929E+015
3701406364440283
3632893203931593
3533982549343083
3456635758005865
3373806713334522
3.29981630154767E+015
3.18613457570398E+015
3080511162014744
3012898371579176
2.8627666639419E+015
2757243291371896
2.61851627132751E+015
2.50743061252799E+015
2.4358011711551E+015
2279371875061926
2.15788694191784E+015
2.07548307200325E+015
1.89763997433763E+015
1.77911125626697E+015
1.65604567343896E+015
1.51206649463468E+015
1.34600824081505E+015
1207031117972574
1.06637330432693E+015
883983337792046
755150384440085
587766585790579
413158317715455
257190211181955
296914038602540
542988180820601
686117010111369
888735290955750
1.05851507441095E+015
1.26660060242158E+015
1.4321886629808E+015
1.60968661878505E+015
1.78035176614549E+015
1.96458248927432E+015
2.14444141549254E+015
2.24786892661455E+015
2.39148795738957E+015
2625349079771317
2820234182098766
2.95396414823732E+015
3098418522357965
3239761617670372
3316148014262925
3.47467817386006E+015
3569587183679131
3.71149551131522E+015
3829754118363949
3.94763757121554E+015
4.09202191655272E+015
4.19445401853834E+015
4.25509394296316E+015
4331835485529001
4392550440793254
4514975760458157
4520402991176703
4543602526727503
4654162969651031
4605603010373937
4706459464731585
4726422670075104
4767414518682004
4896812704357647
4874998738308266
4919752132998434
4860952965167548
4889994902081724
4879330518771178
4791174284500525
4649581086390028
4712867098418643
4708950488600558
4604892718427362
4657674412936210
4528671389681548
4507437662123734
4328399073083249
4.31466842946812E+015
4.36442888217605E+015
4.2118061506698E+015
4087024862646889
3989859925589045
3.8325752779264E+015
3.69536388083844E+015
3615095888819531
3.47877485769276E+015
3.25257688504449E+015
3130091540708043
2.99365546229416E+015
2878678203956364
2743952828681410
2613709295548223
2.52116625819908E+015
2267281905802271
2.14027970493233E+015
1.94621994183857E+015
1.7597833120306E+015
1.63742802114916E+015
1.40282159242911E+015
1.2103924995789E+015
1.05803987909458E+015
886284283534471
711892604482492
485031359213681
296053684977112
358073176436201
609295434650140
831621815983988
1.06430745521471E+015
1.22273257163664E+015
1446029351827081
1.65372972152864E+015
1.88674049439688E+015
2.07557811106652E+015
2.27257908306581E+015
2.45648967461308E+015
2621232387714761
2820229180042803
3071467444835820
3.26706283910984E+015
3.34869139035036E+015
3589795489764778
3700951177347759
3816963861269643
4068357189797475
4.23464553819135E+015
4338088055481243
4.42368823915542E+015
4591697294800150
4704253558052434
4856446112745972
4924268989531934
5029017043427857
5124906456215444
5229899610853496
5197286205982600
5298777921447397
5421428333630579
5471248811010048
5523770398608881
5563686805183996
5613007076967282
5699992830142877
5779975704971960
5616258413342448
5666178931841150
5671531131720270
5587396550442900
5598100950201137
5554783145572002
5558984872579909
5473549756752472
5412124509541644
5377160138368707
5289424076798842
5228398994064958
5120154503051740
4983393291000336
4951515188355825
4845336546454828
4743194563714999
4638456513930999
4453485486519826
4.30366390635218E+015
4224131216559657
4.08773515459346E+015
3.85859597303965E+015
3728772612607256
3.49039963574797E+015
3.35814527611815E+015
3219953476061669
3.08312723728276E+015
2847850533063829
2.64879871812021E+015
2489523252184769
2276615742226978
2.05918637367973E+015
1859324225670293
1636062459871589
1.41835297619048E+015
1.25055400689614E+015
1.03983739744962E+015
830246250594495
564712109862672
354383159753185
398275200406734
665493533380893
944583245769177
1.19993320056279E+015
1386875038022908
1.62961480973684E+015
1.86749758511186E+015
2.12500342602501E+015
2.33678047133543E+015
2.60606115198264E+015
2.79001676203357E+015
3.00201889986227E+015
3.23665033886214E+015
3.45030315515823E+015
3.61778699492698E+015
3863993191422428
3983387265174484
4234500478568456
4.47592971162039E+015
4643763695306461
4758180723376533
4957027454025722
5029817372381745
5132009375681192
5305180553078493
5514416553960326
5726503726740383
5788579241226244
5722452061411331
5926786047450608
6019324082743792
6086451673751065
6137372603442126
6173837591403601
6283282575847650
6323249002982383
6473710846313140
6458404555070050
6369668082307830
6421139238154687
6436595591076631
6464807186701147
6425741129639539
6430092918326298
6319147317093713
6284583110397716
6288784837405622
6239164442264628
6119365201979667
6036181011335035
5890571162287220
5809187711788835
5869162362770743
5579843445940589
5442386948110496
5480102450062421
5332041593593326
5088091324336643
4854110152611814
4831445837048927
4678668041807859
4472308223104056
4.20927511035313E+015
4005966545786021
3.83694207278105E+015
3.62357937573073E+015
3.57606984820562E+015
3318253879822840
3026934140607970
2.87519677300696E+015
2575563616783584
2.35794417010978E+015
2.12461326565999E+015
1.88708563625825E+015
1.60109808869865E+015
1.41092492308721E+015
1139083189787567
961555221647544
690423780294473
426712888960724
448646904353189
769876437191606
1.07632239363494E+015
1.34433255206785E+015
1.57640293841527E+015
1872469628737887
2.13925928551612E+015
2343973427808493
2.66840177543448E+015
2.92201101475338E+015
3130486703129025
3382010085111864
3.68661528496126E+015
3.82769327130769E+015
4066906593568555
4350978353694786
4571724085344708
4788673256519628
4944162166091988
5182880284812634
5308832053930603
5480352552860511
5700292953500585
5825794537581991
5982558971424609
6119665325337375
6367167054326932
6326000133761369
6615869276747319
6748873944771417
6709457743792481
6780787061807661
6845913830430215
6925646602461209
7054999769633196
7026638112329825
7152039655291995
7215865889364484
7250930301656660
7245227957860213
7262234948130313
7198958940213621
7160693212105899
7297949627697520
7106821069397380
6960110768037968
7042644691407565
6935750755504032
6884879846372589
6683547093910389
6656986176753266
6620671250470641
6370268329023244
6254770856865426
6117664502952658
6031379037611715
5893022169708499
5820092193785545
5598401073558845
5321337193835086
5150767085537918
4919146884227058
4708400262444761
4.44144553781979E+015
4.33116020797416E+015
4107458261250817
3.90072829040584E+015
3712290838213146
3490899841344153
3188770659195846
2915383290604006
2.6357983746755E+015
2414837554619226
2092435039657769
1.85502245754315E+015
1565013256990270
1287514198397836
1.07944867861106E+015
784667516670630
460913946393893
486321889651824
832962366981749
1.21000233921388E+015
1.49452428437667E+015
1.80978886548065E+015
2.0255425452807E+015
2.36858354314052E+015
2.67103785892634E+015
2913102353085429
3.2110598205616E+015
3.53643355676436E+015
3690376831044527
4044942565840318
4.37178190443989E+015
4640872506960545
4694179417345381
5000090153800804
5393666923042624
5521369411747220
5714648854110932
5944493325555356
6096105641757327
6205750708439846
6514077437924816
6604314527475576
6777685787111348
7010331409894377
7065904251629906
7184052813447475
7330262909210708
7493830139161365
7553904831262508
7753887028615024
7769493443215820
7769743546013911
7851377099310385
7943314887888154
8032201422329232
8089374921972533
8053910345203415
8016544987168816
8023347783276856
7909901154063372
7882840031310067
7864132342012959
7721373664863364
7687209622644313
7579065172750331
7595021731268454
7499782585755899
7337966075391870
7188504643253472
7036692244813030
6966363337990210
6803796519231911
6678194894031271
6568949991825694
6389626285595387
6102908437865365
5955998054267482
5637617192299308
5552732302627667
5322287584467827
5047174506569169
4692558751213760
4.48729438276559E+015
4336417368790005
4.03486842513327E+015
3811766725125339
3.49498151900898E+015
3276516724877633
3011557820581416
2.66571066932703E+015
2332838851237540
2.05246861252304E+015
1.7655306743307E+015
1.44821024822642E+015
1.17966987186156E+015
822993269449894
516977489819274
546899788582724
882607772402552
1.2861186247845E+015
1.62561816702336E+015
1.97380628046787E+015
2.25680760061827E+015
2594546419158591
2.87483162292174E+015
3216877211645165
3546117537106394
3901848750941283
4146259209346452
4356390578245446
4755239514470998
5034719387224302
5301529052226383
5567988573311138
5823593632958801
6068744395646314
6300989853952399
6580904905574381
6691250260091550
6908689632750728
7163644425123357
7358624566514079
7595371875185779
7709468771674295
7866183184957295
8021196899213284
8125239663218595
8271599820660681
8370390425906108
8486738247577432
8509897766680537
8660559692249766
8609788824237560
8738491724134514
8728787735568634
8710530231308087
8786211338010026
8871246289360520
8782109652121355
8770805005647701
8676666312446742
8657008232516893
8534457861452945
8471331915215107
8370340405346491
8322670812030596
8207123319313160
8113434811148762
7974927881566692
7836170849186533
7699014474714146
7453163424191981
7436456557279590
7163944548481065
6859569443205912
6745122402800071
6497570653250896
6223908171581158
5916982017765491
5654574162009789
5429531664288687
5225047616570556
5033418852674236
4733960768409527
4.47306853561025E+015
4.06290995085508E+015
3.85855595659196E+015
3.5667110015011E+015
3.23875120236609E+015
2.81794324046826E+015
2543705522362919
2.21835679643997E+015
1.93544051124091E+015
1590023536799239
1.2542255159721E+015
930267361606523
538486330454987
618629271074847
969893648935854
1.39441813841329E+015
1.75000429262529E+015
2.06060195551691E+015
2.45683481647445E+015
2.82159474132037E+015
3125754758189168
3.53735893711729E+015
3.86866511169074E+015
4.32619816846006E+015
4516721477988823
4709290628405960
5096544798912074
5440336105166160
5702393817004537
6016272828607097
6282482246893764
6579004124308900
6927647424845926
7143085975120384
7399991569318113
7535797388680814
7593321032241443
7918454669758040
8179612011523293
8423012054624180
8487838699889026
8759900523650991
8805569294582168
8914764176228126
8980991397162276
9.0987397945029E+015
9.25755507128985E+015
9.40106405683372E+015
9.43107639260448E+015
9.44778325951687E+015
9.59889537012266E+015
9.51846231025702E+015
9.73745232026435E+015
9.6600705145354E+015
9.56263046439966E+015
9.62145464251035E+015
9.48029662326853E+015
9.41637034807681E+015
9.21103595084517E+015
9.26165675717853E+015
9.18547544488041E+015
9.04636826858292E+015
8968586298377028
8871446371598992
8653156649426311
8476834176773080
8298811005092839
8177461127459722
8030100558825277
7617681044775379
7540949506321462
7295198496918534
7064353614281750
6847664550016843
6444098675019321
6255521165259695
5945193613390008
5691089170530883
5523020090214612
5143213981035609
4775082670471435
4533993577224898
4155402967644610
3.87031078810217E+015
3502899773596496
3125694733517626
2798745349686899
2461321660672176
2112053103139924
1.69235559766562E+015
1380752521525672
991182399109248
580943781458693
708341144749619
1072255722138002
1.47348063494541E+015
1.89879044720885E+015
2280517345877177
2637389028471355
3.04763765023383E+015
3385496518117234
3.72230995630462E+015
4.13672028862731E+015
4535189068599765
4883002027847136
5087491077621227
5472549345560113
5830446449626458
6221857328636822
6590708935259497
6844613295880149
7135082685581514
7409345413966668
7639339947089946
8009191964904979
8054910756395776
8359335882230544
8648354675702989
8836281918187582
9.07678076883063E+015
9.20778461447001E+015
9.26720903929612E+015
9.54902487218358E+015
9.72294635797515E+015
9.86010273244753E+015
1.00559332233518E+016
1.00695888361275E+016
1.00818938937935E+016
1.01595758228801E+016
1.03856687523532E+016
1.03720131395775E+016
1.02298046885837E+016
1.03356481927353E+016
1.03442017084299E+016
1.04356392914115E+016
1.03179409146305E+016
1.02195004533024E+016
1.00722399257872E+016
1.00777421873452E+016
9.9779511709074E+015
9.81668488669916E+015
9.79192470968829E+015
9.646114778402E+015
9.55867884018984E+015
9.37615381814399E+015
9.15851436324634E+015
9.07958192016923E+015
8890204081455718
8606687549541247
8438018222509560
8119537319422150
7841873192982976
7680556888215128
7461366795969323
7101318807839406
6822804331886728
6500671927947209
6196096740433584
5858407942452886
5572990629272931
5169524795394645
4812177917484097
4505486860298634
4.13882115213126E+015
3.84117881418069E+015
3387997546098131
3.01486417957216E+015
2635393208142599
2.25175552409686E+015
1.89995592624794E+015
1.4860107851297E+015
1.06070597492222E+015
637997231758913
734126743232666
1165959236470285
1.611787482289E+015
2.01116163439054E+015
2.43887743557161E+015
2862806680389592
3257473897831084
3.76239643278243E+015
4.01905192418207E+015
4448348375047063
4863934190520777
5244005408665755
5610756151784476
5965802083952599
6245016847739929
6689849684422249
6961861487624595
7256282501535778
7571762171046112
7872035590432594
8184714108604324
8652306299912807
8779208459663515
9.04246666493272E+015
9.42002184892892E+015
9.56883301379228E+015
9.78282096783782E+015
9.92387894596041E+015
1.01132567846739E+016
1.03033849317817E+016
1.04700034158691E+016
1.05084192056556E+016
1.0638372619543E+016
1.0961755537473E+016
1.08741195170224E+016
1.10483411261716E+016
1.10526428942988E+016
1.10266322032975E+016
1.10983616857896E+016
1.10765527217962E+016
1.12011039152448E+016
1.1055894230674E+016
1.11453810118304E+016
1.10562443745913E+016
1.10629971501397E+016
1.09211388430632E+016
1.07998890065494E+016
1.07372132453481E+016
1.05995066447199E+016
1.04781567670868E+016
1.03420008038067E+016
1.01315643094941E+016
9.99210698927927E+015
9.70593936770505E+015
9.52661566147474E+015
9.31838007178527E+015
9.07452984364782E+015
8779008377425044
8485937918623545
8211325046321066
7946216080345995
7790852222172680
7332063649356954
7086512722192497
6680395798654461
6340356034371717
5959749596238828
5494458350672771
5260412152220438
4825543411014009
4.43046602498365E+015
4.07848135106415E+015
3.65085558689039E+015
3173044195251966
2842953520277232
2.371269647192E+015
2014112847408002
1.59065379585042E+015
1163098060460139
665143389463567
776784276474843
1284452940149218
1.7282953697511E+015
2147332603838456
2647388138338981
3.09236103258823E+015
3471852012241642
3.91622966183144E+015
4.23887727753503E+015
4788823318198482
5233200967788280
5607554835968928
6060991208905534
6439946968571031
6704655770069160
7054449543477398
7595621977983869
7802406971444424
8280553500832292
8508747293809325
8950728958593425
9.07648064547292E+015
9.38140597690387E+015
9.63676093375344E+015
1.0003661738551E+016
1.0384518279482E+016
1.04590489133127E+016
1.07164547131066E+016
1.07311107370747E+016
1.10446896253195E+016
1.11049143790995E+016
1.13247047180608E+016
1.15327902460714E+016
1.16673955720033E+016
1.1584161360799E+016
1.18158065723897E+016
1.18862855408913E+016
1.18852351091394E+016
1.19869769274023E+016
1.19416583003884E+016
1.20321454927373E+016
1.19802241518538E+016
1.19109956973426E+016
1.18146060789588E+016
1.16681458803975E+016
1.15448952214989E+016
1.15107311792799E+016
1.14146416842538E+016
1.1362120096655E+016
1.11881986108634E+016
1.10309839919842E+016
1.09289420503636E+016
1.05861511553019E+016
1.04248848710937E+016
1.02053946554902E+016
9.95874327601411E+015
9.6781779571171E+015
9.50375626572935E+015
9.09924000009908E+015
8790363044458316
8556867072161781
8249890897786497
7878938427659870
7544150822137010
7100718561123992
6702554906565206
6355812387293659
6013671759506965
5649672147167231
5225647863285971
4688842223634147
4.36180780485207E+015
3.93346174461982E+015
3439853860254047
2.95837596159562E+015
2603840239135604
2085952375131284
1.67252744783307E+015
1210057361829459
726328537988229
764974422349048
1.33267275962091E+015
1.81123946170957E+015
2348565315181420
2.81146057594178E+015
3.2969051049779E+015
3.77694741357529E+015
4.19372872042387E+015
4572339338228008
5097595230664050
5436084357598636
5962600768137049
6462706323197195
6851216009749717
7192806411380615
7574263199027009
8011542931207022
8311016021639616
8644703174850879
9.05812310009314E+015
9.47759551304916E+015
9.67322592171492E+015
9.96549605156253E+015
1.0259616942116E+016
1.06860922334185E+016
1.08102932829499E+016
1.11237221095159E+016
1.14615609691754E+016
1.15658038154192E+016
1.17545814074173E+016
1.20545046828865E+016
1.21018741528447E+016
1.23011560623625E+016
1.24303591678557E+016
1.25690161591166E+016
1.25116425772348E+016
1.26867145358976E+016
1.26290908512177E+016
1.2837876667063E+016
1.27630959304342E+016
1.27317830601134E+016
1.27117748362662E+016
1.27669975340844E+016
1.25159443453619E+016
1.25302002048531E+016
1.23707846813507E+016
1.22542867980005E+016
1.21382390996869E+016
1.20750631328894E+016
1.19477107881022E+016
1.17992497671561E+016
1.15589509987516E+016
1.13408613588174E+016
1.11554851648733E+016
1.09329937156927E+016
1.05618911838872E+016
1.01954905846858E+016
9.98985606409647E+015
9.66652316672612E+015
9.37860482556527E+015
9.07387957637279E+015
8696274371816974
8330674101569466
7927258288250797
7529894962645898
7137783795800883
6786239302806015
6406533234746248
6026677105007628
5448789579741592
5125406661811623
4653787815453897
4121474022055764
3.71609240074411E+015
3.24880033279333E+015
2.80972486252304E+015
2.26345033093554E+015
1.81327029643006E+015
1311353997111745
781021017874482
815435162891624
1.41479651440164E+015
1.91827345518003E+015
2.43046397744387E+015
2.91521322070131E+015
3489559290346392
4008117429849592
4.49998459874066E+015
4864294338550026
5324838633008342
5840600623228899
6325900092642134
6747023184065552
7216166012722191
7631136575312605
8135894042417216
8469481154509243
8801417588133879
9.22969361958266E+015
9.53927086305808E+015
1.0028271853883E+016
1.02659195326279E+016
1.06420741409548E+016
1.10399376721558E+016
1.13571680612528E+016
1.15536988399917E+016
1.1995780545895E+016
1.1841817263391E+016
1.22087680887482E+016
1.2442614204962E+016
1.25638140209163E+016
1.28753420662168E+016
1.29244622557616E+016
1.32522970034976E+016
1.32030267522739E+016
1.33570900758972E+016
1.35144047358956E+016
1.33392827566732E+016
1.35316118084042E+016
1.34695362939183E+016
1.33941553105741E+016
1.35339627747062E+016
1.34747884526782E+016
1.33799494716426E+016
1.3399007304857E+016
1.32679034180984E+016
1.30898802464182E+016
1.28354756802013E+016
1.2844679463171E+016
1.27086735615699E+016
1.24028978806254E+016
1.23545279994749E+016
1.20349466440759E+016
1.16922057695737E+016
1.14521571039673E+016
1.12150596513782E+016
1.07555707907279E+016
1.0686942582932E+016
1.02836768312922E+016
9.8920658700434E+015
9.59929553459961E+015
9.31807994842756E+015
9000599456532510
8364538020430810
8093176484503497
7598673232120563
7184452977924419
6745172423359688
6283032473049560
5882467831629113
5338644307462893
4888384240062025
4.48103681075739E+015
3.93883895477875E+015
3420540922185561
3.01913093330757E+015
2.40245246405782E+015
1.92703205516913E+015
1.37822648326497E+015
804645728182034
818551443755821
1.48669606679646E+015
2053353976428274
2601534291337217
3.06668047728038E+015
3.59062583105444E+015
4218493899490715
4743459672680973
5219645396131819
5708046140241364
6243866374868713
6768081839664706
7118876024265303
7630786431395279
8128591040712997
8566921204644987
8989845036214651
9.32453260061828E+015
9.85705147831084E+015
1.01482711764065E+016
1.05188234820562E+016
1.08849239578998E+016
1.12496238580742E+016
1.16259785486396E+016
1.19495115282484E+016
1.21730033886214E+016
1.25829218746904E+016
1.26717083680122E+016
1.29694807594178E+016
1.32557984426709E+016
1.33568899936587E+016
1.35980391115768E+016
1.36435078002695E+016
1.38131775384935E+016
1.3973243329271E+016
1.40882405958326E+016
1.41958348195708E+016
1.41059478739373E+016
1.42820702643521E+016
1.43066303591245E+016
1.42812699353982E+016
1.41783776442641E+016
1.42158930639776E+016
1.41841800291798E+016
1.40079575976458E+016
1.39830473589561E+016
1.38689004419079E+016
1.35419160436855E+016
1.34933460802965E+016
1.33449851004696E+016
1.3207728684878E+016
1.30025443493253E+016
1.27690983975883E+016
1.2451517864574E+016
1.20396985972396E+016
1.17958983896617E+016
1.13715239618631E+016
1.11718418878683E+016
1.08583630407427E+016
1.05422331039574E+016
1.01594757817609E+016
9.72599761211184E+015
9.44188083348196E+015
8828828854804509
8365188287705843
8042805780968234
7577614576521411
7150689100182311
6672542570794443
6095205271684204
5689538533182728
5221045971801121
4686596300507302
4211976220572499
3.65209109471296E+015
3107627307383627
2.58395706668747E+015
1.99807625599449E+015
1.46353654769336E+015
862579540331530
920523356592949
1593074790935933
2.13443230151299E+015
2754572193488298
3306489044200701
3.86246756435408E+015
4410307739457622
5029317166785565
5483753950914531
5999165797217763
6510425937072706
7032390476685888
7505835073469670
8108732878544675
8607537899054753
8997748284634285
9.53832047242534E+015
9.78897349667083E+015
1.0393021774617E+016
1.08196971481581E+016
1.10684493911381E+016
1.14513567750134E+016
1.17430766787052E+016
1.22187221801122E+016
1.25383535560708E+016
1.27294320938113E+016
1.31973744290371E+016
1.33859019182371E+016
1.34995986502487E+016
1.39705922396112E+016
1.40389703446089E+016
1.41529671999782E+016
1.45204182309316E+016
1.45170668534372E+016
1.4594598720845E+016
1.47834263334027E+016
1.48979734149278E+016
1.49870600316073E+016
1.49431419802628E+016
1.49876602783227E+016
1.49399406644472E+016
1.50678932559499E+016
1.50265262531459E+016
1.47878781632087E+016
1.48046350506807E+016
1.47442102146622E+016
1.45880960480946E+016
1.43906648992826E+016
1.43726574978202E+016
1.4064230727216E+016
1.38084756058895E+016
1.35929370144958E+016
1.33083200302697E+016
1.29899891888611E+016
1.27335838002596E+016
1.24571201672513E+016
1.21582973440937E+016
1.17376244377068E+016
1.14729656567683E+016
1.09660573056001E+016
1.05745463854705E+016
1.02793250426055E+016
9.71989510383846E+015
9.3510935177754E+015
8881350442403344
8520952310356102
7957420685700413
7493029810207479
6997276043834095
6425741129639539
6094404942730316
5506713387779163
4884632698090680
4392680494248261
3873206978504052
3307294375210550
2714965914382815
2.09550630201831E+015
1.52226568674078E+015
909853971226443
987315809850782
1615268913238412
2.25568714008283E+015
2.87335101435705E+015
3.51335907261261E+015
4112220218526445
4644098833055902
5191283738828448
5688638163109604
6284282987040009
6942603572171690
7318157933783167
7946216080345995
8471431956334343
8933721968323325
9.38475735439827E+015
9.95969366664685E+015
1.03352980488179E+016
1.07986384925589E+016
1.12860888460357E+016
1.16522893629986E+016
1.20869680260785E+016
1.25140435640965E+016
1.27337338619384E+016
1.30405099540753E+016
1.34718872602204E+016
1.37662582535719E+016
1.41947843878188E+016
1.42591608480471E+016
1.4629162927541E+016
1.48415002031191E+016
1.50334791109328E+016
1.52031988697164E+016
1.52324108765333E+016
1.53694672098865E+016
1.54243397637873E+016
1.57398194332977E+016
1.57801360043497E+016
1.58107485868359E+016
1.58119991008263E+016
1.59276966552226E+016
1.5760327862741E+016
1.57864385948616E+016
1.55178782102729E+016
1.55322841314428E+016
1.54338436701147E+016
1.52915851985613E+016
1.50858006162931E+016
1.51018071953709E+016
1.47292540673365E+016
1.45599844935894E+016
1.41736256911004E+016
1.40878904519153E+016
1.3811676921705E+016
1.34768893161822E+016
1.31904215712502E+016
1.27507908727682E+016
1.22584385044488E+016
1.1875731202812E+016
1.15130821455819E+016
1.13336583982324E+016
1.06669343590849E+016
1.02464615349365E+016
9.83944424132533E+015
9.34324028991538E+015
8865143781087133
8427814028347501
7765491798446385
7403693090729841
6930848740661475
6390376593989655
5734607057398490
5141063096972038
4573254714469016
4.0301114699136E+015
3.41251762442284E+015
2817923232244416
2.21887200820403E+015
1596646258892654
969683562585459
1.03114882624398E+015
1706746512667697
2361925806655371