/*--------------------------------*- C++ -*----------------------------------*\
| =========                 |                                                 |
| \\      /  F ield         | OpenFOAM: The Open Source CFD Toolbox           |
|  \\    /   O peration     | Version:  v1806                                 |
|   \\  /    A nd           | Web:      www.OpenFOAM.com                      |
|    \\/     M anipulation  |                                                 |
\*---------------------------------------------------------------------------*/
FoamFile
{
    version     2.0;
    format      ascii;
    class       volScalarField;
    object      dnp8_s;
}
// * * * * * * * * * * * * * * * * * * * * * * * * * * * * * * * * * * * * * //

dimensions      [0 -3 -1 0 0 0 0];

internalField   nonuniform List<scalar> 
6400
(
27603124982660.6
44817570312242
60632319019215.4
76747130002840.4
97444299070606.2
113528678886841
125277439813989
143940792527859
158062499124771
175718059304177
185440954362602
209343128496786
216379307875737
227908882151279
247912577003613
258589530282914
280927652075118
282142157224105
303627658020067
307813999696147
330526342600850
335827122974589
336031368197161
345862554346749
362884817258850
362111701114348
377164162785936
379979731156161
392093254859996
400563263116871
429397479605519
409873555410235
419108455171776
425500371096975
434336375826513
420784910924836
441675496106058
430110281724564
432749020338334
424418830958656
448366240611934
428836833323425
443417748977799
424362629253116
422569657769059
419567664229237
426458541637768
422753341392043
404431585385992
416800072924717
397631179015648
412364250506972
386829485365515
380721319514628
369391878141741
362941018964390
351160593173877
346811129474400
328655237038358
319131104109281
305718087311496
295559286341808
283146934057296
270120475331761
261132314765274
241452122413121
237714023608056
211232054112254
210728980309005
189998775604568
175899001380549
160137849909835
140040942472703
128299172489415
110224429833079
103185645984847
79665506371004.5
62834877567062.3
48669306224362.4
27780914280429.9
41892340077548.6
65618506919261
96704492717436.5
126613395477875
148752206831408
176739285417038
194564821486370
222417564288026
256282518809160
265173354470933
289367503319264
314436205536730
347911860439002
352662960717093
381763107227077
413615766535217
428446162931257
451373717244978
460019184485002
482943997252112
493678523010258
522908892984299
523320124976055
536840062091698
564600963081862
570894183329040
587646403899887
590407141337878
625353635997331
617215354880474
633549489593035
624762832702508
665997064515916
640936586938285
654973305590234
656404392921547
667047076868200
665976502916328
680616361822854
674239524404019
683582715256723
686087118086519
679492327712053
665835313265825
653361276182550
649224282345481
661096549947486
637792032974655
641005125603578
633689308470232
627232966199658
619607354299190
611026313404541
589793034896855
571150517937235
554879438796742
541149773365304
524737504574309
518929538077403
492019887310175
471796868728904
453697177998401
433530361122671
407492522177965
403111530692455
384685595915159
357622418537674
334138330261776
309822182589224
300488587149661
271341834347278
243541180931243
213847489579824
193528516867144
174300679705923
145625472920754
121662162297129
93766925522990.4
78258818804536.7
40646718374518.6
57028144766132.3
92456603319924.2
124635917906849
168962888452926
190834947321140
225681375529266
257466866945419
292849267516134
331624332018839
348990659030709
377347846408920
408833138471091
451494345295893
467170508821645
516797985586800
546395722806809
563519422943543
587498360382855
616061163756944
647880924505744
654208414085568
697341166927584
691575694403160
714068713578926
746790443162977
760969722238736
783464112187808
822591465430117
820113107293132
818151530692455
833676909154562
859721601965797
862867526702733
868920861621386
877240084814617
889201452681503
896064914623916
900639185145552
874173664929420
885941753760181
880577917814372
894702365957896
894053990184227
895596110153314
874823411476395
861425473184974
864025830146180
850462028284750
836689868880830
838090799199413
834370520447325
814963111983037
806745326014440
782581334178837
758436533169517
741667863319000
707631562134633
708714473046258
690978037241807
660633228570108
620102203462603
613212696827379
586023408305755
541854350844513
526323489289182
509967422203727
473504852267998
445160001849540
408246447496185
396231619470371
366292559697204
336539925093633
286243510955221
274654993427528
229644281156491
194755358975883
169042393304665
126752666045750
97153283897773.3
57532041033364.4
69205409428690.3
111955168209051
163408515017604
208315048517396
248397830753886
286357285139607
326801951528843
363271375331101
419190701570127
450656802806016
477937933139132
521872588365073
546221634596965
604726239290834
633028595736811
670180664645384
702705002873392
730165704509575
778018029843648
794290479757446
842580081776087
863191029202914
871691194472518
908649984344966
930327393403748
966942119176426
951522290258870
984644285648231
1.01232156946674E+015
1.01493700493431E+015
1.05670720911031E+015
1.06180785658139E+015
1.05919379188713E+015
1.08937547853543E+015
1.08749340678649E+015
1.099506864039E+015
1112267392743198
1.11582317869858E+015
1.10188378495135E+015
1.1012408922709E+015
1.11073486818725E+015
1.12016441775823E+015
1.11216869706518E+015
1085105519687692
1.08800333445627E+015
1067643238544412
1.05680864633494E+015
1.06531292392446E+015
1.05234266690446E+015
1.038630821526E+015
1.02737814345824E+015
1.01434071854626E+015
995565236575973
968459565226007
947263297597580
924564662425936
904288183685737
873134618763583
844189369637160
825660626861925
784518236860010
755600403199704
717583376335137
687141242758721
667511769018885
624643575424899
591351604145612
568769484704965
520033010588616
487551166333089
453826030689152
414369691853437
368862759645681
330777194115821
292231048755194
242248541703823
206942904438235
161072717304428
113222722284974
70480913989787.9
81366910198231
148801554670419
188024862044138
243550776344384
290077563891696
347101733415242
392479812932247
441121703690493
487891118112941
538378069740866
587666965499475
616010445144627
655368088302321
719455852670934
772862551440329
809510175772348
849096738072119
887830679375648
908763758529352
952207676911797
978216729617079
1017105568304170
1049513390801181
1081818405300253
1.12138577677374E+015
1.14945647253103E+015
1166074357317903
1187104761376322
1.20374320776278E+015
1237292884423571
1238780173460423
1.24513782005298E+015
1.27543602243228E+015
1.26212855517904E+015
1.28976745734499E+015
1.29523821360865E+015
1.30647170085013E+015
1.34193223549928E+015
1.33595429311245E+015
1.34821860187993E+015
1332105161669606
1.3400638714834E+015
1.33714138279532E+015
1.31298287405294E+015
1.27418039408411E+015
1291523417949785
1290450102451301
1.26193390536961E+015
1276398305292987
1.241046061735E+015
1.23522712905165E+015
1186163040115200
1.18240026739063E+015
1.19603672023727E+015
1.15421168512904E+015
1.12001637424119E+015
1.09338910277497E+015
1050286506945683
1.01268482439279E+015
990688025153743
953330340249292
891342600585247
857776474644789
820387261954303
788878666745933
751958258526049
716266063188210
690905386256597
621330416344649
586526482109004
533345960935075
482254498279267
448724012444762
384432002853576
331698353777355
289947340427640
242879097424516
195088456889206
132918952684805
81131137189624.1
98127081254252.3
166972525612825
227899286738138
291664919379876
335080051522898
396272742669547
453191362648541
517046095555159
568795529397777
622782065275549
673181287411899
718327706240216
772861180667023
841711011500175
895312360079002
917682009657241
983754653772731
1.01421597817543E+015
1.04600832345811E+015
1.11490064826374E+015
1.16047063604357E+015
1188818228008640
1.21227627159173E+015
1.25831780538877E+015
1.2891629463171E+015
1.33087009492103E+015
1.34945641017511E+015
1378161773973010
1.40443949824624E+015
1.43321202993612E+015
1.42427458798195E+015
1.45208757835774E+015
1.48569893981729E+015
1.4993518419436E+015
1513744961655074
1.52468373263579E+015
1.53819955743152E+015
1.56203730522033E+015
1.58395597038094E+015
1.53909056008032E+015
1.55277087767275E+015
1.55423760511001E+015
1531181198105543
1.53411465298007E+015
1.52224375615137E+015
1.52339520572829E+015
1.4999823976643E+015
1.4831493014684E+015
1.47356759606048E+015
1.44952423227579E+015
1.43280079794437E+015
1403137263605678
1.36565895065031E+015
1356923012372101
1.32782560740873E+015
1.29983441650318E+015
1.27113179425189E+015
1.2204419681747E+015
1.17938456611775E+015
1.15758927055466E+015
1.12021102405062E+015
1.05741726968274E+015
1.02184021930259E+015
956516017412097
920272771205305
882402417084465
844906284076122
780430590861952
725882037928780
682233874323762
623888279333373
564303505274492
509532887065771
448349791332263
388688253968254
342704292650060
284959096367636
227522324079028
154754823137745
97115861786523.5
109144123390735
182373163704100
258855460304249
328832066794813
380061977554512
446582864541017
511772730647537
582340140432925
640375940656190
714170150803559
764581709899662
822679194921692
886978058379407
945527898592368
991425501192293
1.05889633407975E+015
1.0916153221172E+015
1.1604308836177E+015
1.22659262799807E+015
1.27258618472941E+015
1.30394125332752E+015
1.35843360455515E+015
1.37838109770195E+015
1.40638599634055E+015
1.45384216818923E+015
1511181615573126
1569302403741355
1.58631370046701E+015
1568192077363613
1.62418816690777E+015
1.64954747306607E+015
1.66794325083064E+015
1.68189772308424E+015
1.69189066048392E+015
1.72188318041601E+015
1.73283565912979E+015
1.77406852016989E+015
1.76987395385398E+015
1745556435408121
1.75966169272536E+015
1.76389738224045E+015
1.77162854368547E+015
1.76092280416675E+015
1.76211537694284E+015
1.73171162501899E+015
1.72223958147554E+015
1723391031052454
1709792959858378
1.67696293918316E+015
1.6541669791068E+015
1614263768173381
1.59196128648713E+015
1.60839685842432E+015
1.5291113304137E+015
1491442479968822
1.50177811069496E+015
1461203220841673
1.39435060671515E+015
1.3302299437872E+015
1.32401896993837E+015
1.28215144085766E+015
1.22560018812463E+015
1153518073836276
1.09780299281982E+015
1051483192041694
993012856680472
979993251821466
909340854091116
829507016758153
787924608525058
705812545957765
646175682513261
582233220115068
517140678913263
438768085924341
386652655609060
312156609529094
263506494131013
189205097860479
116937243789179
122948084735351
210978461050671
294957516860538
368403550588220
432000578113337
513135279313556
586246844354610
642347112670009
731254098514423
800753675894550
857884765735952
926812730647537
1010287341880850
1048948632199169
1.11450312400505E+015
1192350710817827
1252844307578490
1.31229748740001E+015
1354907975612495
1.42032676086109E+015
1.45484283270251E+015
1.50184664936026E+015
1562119551618678
1596512253862566
1639472289268045
1.67704518558152E+015
1.74487104875519E+015
1.73358958444801E+015
1813025897522277
1.84947475972495E+015
1838673066074814
1.8582202934163E+015
1.87606776185852E+015
1.89791788835384E+015
1.93336608604324E+015
1925593801399045
1.95995908817682E+015
1977450155559519
1987059276433559
1.98549659486488E+015
1.99015722410479E+015
1.97281694178573E+015
1.96233052599594E+015
1.99994454550859E+015
1947567297491892
1.90736251643118E+015
1.92998027597778E+015
1.90068685043167E+015
1.88674608591113E+015
1.83157246035049E+015
1824293654096401
1.8143418398959E+015
1.74572092820482E+015
1714069772572644
1.67649687625917E+015
1.65285103673318E+015
1.61493544709325E+015
1.59494957229389E+015
1.53419689937842E+015
1.45826976596714E+015
1.41152639623751E+015
1348052738309917
1290299317387657
1.21714251682751E+015
1.18691970698003E+015
1.12561598319561E+015
1068963293237950
1.0173235212598E+015
956653094742683
873857016295768
798937401264293
722319398106864
661766858094049
573415035438506
508354022022736
428879327295907
352832936607019
295814250176697
215031837716082
126309769190628
133272612197716
228266653984107
331591433459498
409562389869806
495958119017894
555083684019315
649091317334813
731976496046608
798312328636823
879965182146655
969131244145876
1.01131816340685E+015
1.10848405841904E+015
1.19805175699688E+015
1.27179387775862E+015
1.28640220887911E+015
1.37023459194525E+015
1.4780911479698E+015
1513086990468264
1566053671006480
1629040704410492
1.67058884331094E+015
1.70063619417527E+015
1785130660748139
1.80985941118575E+015
1.85737041396667E+015
1.92112508042196E+015
1.93635437185E+015
1.96873203733428E+015
2.00879974106441E+015
2053624028165851
2.07008701556916E+015
2124890532337224
2.12916734505149E+015
2.12923588371678E+015
2.15160690406833E+015
2176801717429932
2.20116035907497E+015
2216828297960882
2207109515222374
2.19686983862764E+015
2.1987340903236E+015
2.16764495174682E+015
2.16022906816215E+015
2155102375998256
2115980505849170
2106618124170184
2.07698200529761E+015
2.08135477214329E+015
2.05525524839982E+015
2010910731955426
1969952025576495
1.92834905574381E+015
1.9090759830635E+015
1.86452585062323E+015
1830105732913224
1.80016804391336E+015
1.75102582089848E+015
1.6724530950069E+015
1.63219348301396E+015
1.54494376209632E+015
1.52168173909597E+015
1.45853021289526E+015
1.38313768107326E+015
1285958078328016
1.22970702494897E+015
1.18836038972448E+015
1105723320981049
1.04458408999333E+015
957771645760260
897903121627067
825293259615956
730516622475873
639295771291177
562462556724729
483829516807694
396870399830899
323279064132797
225534702785539
141673533479975
149873499395597
241871579044713
352450490854686
445487616669639
540905775716862
618460017042189
711014630653482
787824542073731
881559391501364
971785061266010
1.06927034645846E+015
1.13624907172912E+015
1.19383388753476E+015
1303135238623678
1.37972445554168E+015
1.45284150367596E+015
1.52586259767883E+015
1595909113607990
1.66309071332792E+015
1726735717918739
1.80344419211435E+015
1.8336834512415E+015
1893270966846997
1.9631392822464E+015
2016572025708605
2.0814507262747E+015
2.11271806538124E+015
2.15566439305366E+015
2198144657802086
2.22665674256386E+015
2266765569493160
2.29383834228379E+015
2325722529377960
2.33206920978407E+015
2.3733569017564E+015
2359443552701980
2394713549861615
2392054249648257
2.38705092708189E+015
2.40779072719947E+015
2431093873398992
2.40666669308867E+015
2.40356874541743E+015
2.37777079180125E+015
2.37238365270925E+015
2.33879970671581E+015
2.32150054759593E+015
2293824634550727
2280761164945934
2.2490963015807E+015
2.22342171756204E+015
2.18546500472293E+015
2.14743975321853E+015
2.109853149172E+015
2042479641189254
2.0379012583477E+015
1.96322152864475E+015
1879809972983506
1.84844667974556E+015
1.78060710883882E+015
1705612101275522
1.62150145122829E+015
1549590683603168
1.48791959257278E+015
1431882379829446
1.37936805448216E+015
1.29730396898057E+015
1.22580854566712E+015
1.11340787613367E+015
1.05740630349629E+015
977428534966213
887553783167866
772234737266248
697082090772777
607922882640086
530391944460958
435733193825179
343710440256558
254932307102894
147567858695150
169530388601550
265791573231873
382129103699740
479574636466322
564691434120048
673275870770003
773235401779521
856588014188614
969384837207459
1.06017663634742E+015
1185559899860624
1.23777128430731E+015
1290543315036099
1396667213602045
1.49088046291342E+015
1.56269527640714E+015
1.6487113013495E+015
1.72166385668708E+015
1802923298258130
1.89846619767619E+015
1.95750540395934E+015
2.02790832094802E+015
2.06512481620197E+015
2080888709219296
2.16998897409984E+015
2.2415570483985E+015
2.30825887746137E+015
2326024099505248
2400580459610672
2413095619893123
2.44301960115993E+015
2.46116863972944E+015
2.49343664334925E+015
2.53695869581013E+015
2576286181955096
2.58451082179022E+015
2589089204631776
2.63050026620164E+015
2608458231443500
2668470686773808
2.64726482373224E+015
2.62056215973419E+015
2.63668245381104E+015
2.59799923111983E+015
2.58048074827101E+015
2524210504065685
2.53808272992093E+015
2517205852472769
2.47908464683696E+015
2457769121930920
2431148704331226
2.37132815726374E+015
2.32300839823237E+015
2274222576277008
2.24096761587698E+015
2200584634286507
2087564375218807
2.066536712707E+015
1.99919062019037E+015
1.93592943212519E+015
1.87654753251557E+015
1.76595354219924E+015
1.71427538856852E+015
1.62923261267331E+015
1.55959732873591E+015
1513539345659196
1409456528545667
1308573096328003
1242504564532430
1.13875484533222E+015
1.06062762076505E+015
959941579903428
856571564908943
766973709318379
674505454425355
578791208344067
463776474116349
378384151028146
271625584421589
159202982515242
194115207842049
293843078162878
403795546572076
520348288448963
624957482511940
722755304018126
835180647471085
927768159641718
1.02006918019143E+015
1.13363500703486E+015
1.24283217935253E+015
1.33814753040181E+015
1.39418611391845E+015
1.49970824300312E+015
1.59778707303701E+015
1.70505008422012E+015
1.80613090779383E+015
1.875711360799E+015
1.95531216666997E+015
2.03047166702997E+015
2.09349982363316E+015
2.19485480186804E+015
2.20738366988355E+015
2290808933277847
2.37001221489012E+015
2.42151216799107E+015
2.48741894853655E+015
2523319501416880
2.53960428829043E+015
2.61683365634227E+015
2664495444186830
2702082048233359
2755747823157561
2.75949003428254E+015
2762862136614946
2.78415024605487E+015
2.84610919947949E+015
2842366988354504
2.80339590326906E+015
2832401466420942
2834745488773953
2.85980322480497E+015
2827548928918217
2.800572110259E+015
2.76021654413465E+015
2.76172439477109E+015
2734377467319290
2.69018373593854E+015
2683398408074563
2.64344036620891E+015
2.61947924882257E+015
2.56945973089194E+015
2509817384354213
2.48818658158783E+015
2436289104228180
2358593673252350
2.31237119737894E+015
2.22509406099518E+015
2.1490024347872E+015
2.1047949956734E+015
2.04472770941086E+015
1.94605944685545E+015
1869734789185476
1.78145698828845E+015
1697990601694971
1605449695816737
1.52723337098468E+015
1.41666679613446E+015
1.31873875116422E+015
1.23469252746237E+015
1.13421073182332E+015
1.05264423703175E+015
928453546294645
826199340771126
722208365469090
617075536003276
520667678629227
407229333703241
290677962599660
174838022841818
201181544233729
319521774501450
441697428478952
551142710764983
668354794601986
784529203046457
892684587651679
1031054557464545
1.10138893578794E+015
1.21903418398959E+015
1.3329221425599E+015
1.43707761065863E+015
1.53758270944388E+015
1.63488019869343E+015
1.71139676462623E+015
1.83329963471586E+015
1.90784228708823E+015
1.98852600387082E+015
2.07498067627106E+015
2.15726819782151E+015
2.24295523717047E+015
2.37109512580174E+015
2405871644571270
2478015443658390
2.58148141278428E+015
2622261918633454
2680903600657908
2.719559407883E+015
2771456885242653
2.82355997859818E+015
2869220437416193
2879747976405155
2915360666891254
3003981161114744
2979965212796174
3027709247039084
3.02888811208212E+015
3021760090891676
3041416980097629
3035440408484104
3069572663799880
3029779114730925
3054302249172661
3.02987506886233E+015
3.03172561282524E+015
2.99285048187121E+015
2959622936937294
2.94244714741494E+015
2.90470975830476E+015
2.87145479790474E+015
2834142348519377
2.77647391554208E+015
2738256755774858
2.65983481494692E+015
2.61069259193204E+015
2.55362729920932E+015
2.48680210054892E+015
2405816813639036
2.32550320564902E+015
2250247751157614
2.17759676594733E+015
2.13502054706749E+015
2.00929321945452E+015
1.94200195787012E+015
1830708873167800
1.73752370383581E+015
1.63322156299335E+015
1.50571223008277E+015
1441573747101837
1.32240145743746E+015
1.21413366942116E+015
1.11767509343479E+015
1.0004876835173E+015
869547305022161
779088603795520
649827422600057
551951467015437
435905911261717
318737692170501
182277209572690
212871498986056
351994023343836
473625480318914
588459272470259
725495479856529
847436731598729
951433189993989
1.07321131971279E+015
1.16163031026032E+015
1312338610599185
1434116740317989
1.53670541452814E+015
1.66096601470384E+015
1.76481580035538E+015
1837357123701194
1.9332153009796E+015
2081519264939989
2.13818703340401E+015
2.26921925371064E+015
2.33175393192372E+015
2.45287546122902E+015
2487336702138200
2570899042863088
2.64087702012696E+015
2741423242111382
2845793921619140
2.86621844387637E+015
2.93675843819564E+015
2.9407748039818E+015
3026708582525811
3.0432126931283E+015
3.10344447218754E+015
3.16046864171109E+015
3197356151371632
3174546483562214
3.23802699535633E+015
3257341191235823
3257053328841593
3.28493485788267E+015
3.27251565173163E+015
3297312940834539
3.28308431391977E+015
3264112811366744
3237698009762929
3197561767367511
3163785913111256
3.15442353143227E+015
3.12809097622681E+015
3113697856515335
3.06603606867078E+015
3.02295266366777E+015
2.99498888822834E+015
2901049793578133
2.85685606219739E+015
2.79670652953649E+015
2729113697824809
2.65222702309943E+015
2604428157924288
2.49357372067984E+015
2408928469043326
2.34494077112604E+015
2260816413345752
2.15915986498359E+015
2.06741400762275E+015
1.94589495405875E+015
1.83678139891273E+015
1.7417593933509E+015
1.64799849923046E+015
1.54824732576343E+015
1.43204687262615E+015
1284939593761766
1.195318435025E+015
1.07793363375146E+015
942664353156438
810719197828112
713561527455760
571638513234119
458342728731942
331606511965863
199044508649902
209635103210933
365208278012273
496355643276592
643605482564784
770458215061861
903490393621730
1.03504213701128E+015
1.14925771040168E+015
1253012912695110
1.39695507599627E+015
1.48971530560345E+015
1634002903777685
1771052818897014
1877520781562729
1.97113089061953E+015
2.07566606292399E+015
2195499065321787
2277567263143293
2.36901155037684E+015
2.48230596410571E+015
2597259013534669
2.65086995752664E+015
2.73096424178771E+015
2811565712171954
2928437844229105
2962474145413471
3.04836680075831E+015
3140948829835721
3169515745529728
3.22124873009268E+015
3.30344029751171E+015
3316421520718150
3.37103312922339E+015
3.40644020371361E+015
3.4444380397519E+015
3428715269933747
3.47669233563865E+015
3460901027155209
3.51811710494157E+015
3497624044019050
3489043003124402
3483559909900984
3498693247197617
3.42989413497678E+015
3433800838898467
3390114293640885
3358188983347535
3.32638704265171E+015
3.30907417579877E+015
3274174287431716
3.23348973571396E+015
3.16763778610071E+015
3107872069965453
3.05707121125049E+015
2.99609921460608E+015
2894401543044739
2.7939923983909E+015
2.73763990778722E+015
2649033121296792
2.57013140981181E+015
2486623900019156
2.3831442231602E+015
2282954402235301
2.17240153511814E+015
2.06350730370106E+015
1.95605238425513E+015
1.85971443631968E+015
1755659034672268
1.65156250982568E+015
1.49319706980032E+015
1404576575576825
1.27533321443434E+015
1129456889998613
1.01836530897225E+015
890307666739327
769982556724729
620280403992364
496912177238769
359366042182721
214032543976114
223463464320393
387713634147791
525687450475266
666049153901538
798890794971894
956285727496714
1.09839242534134E+015
1.23318467682593E+015
1.33302083823792E+015
1.45922930728124E+015
1600569742847895
1.73356216898189E+015
1848967573601781
1977532401957870
2.09125175541156E+015
2.22957648970533E+015
2320993361472762
2411957878049264
2529323488496522
2.61416064839585E+015
2748167446776186
2813292886537331
2.91637503913759E+015
3.02540634788525E+015
3.11234079094254E+015
3.16619847412956E+015
3287347418900977
3245155016546777
3.34571494626426E+015
3409798598312955
3.44301243551381E+015
3528384197002424
3.54184519086591E+015
3631685673331617
3.61818355626895E+015
3.66040337408927E+015
3703514194558389
3.65552342112042E+015
3.70822965473053E+015
3691218358004875
3670560804285648
3708873918184280
3.69265766997602E+015
3.66666780809702E+015
3671890454392327
3.63596248604588E+015
3.58717666409052E+015
3.51745913375476E+015
3519981356637537
3482710030451354
3398914658264472
3385659280396858
3298080573885817
3.20415518696867E+015
3138371776020714
3.07339712132321E+015
2.94747788544742E+015
2.9286708756911E+015
2.81815913177311E+015
2710841289657769
2630609928066108
2.55354505281097E+015
2.46654207108839E+015
2292234537515936
2.21787008567333E+015
2.08235543665656E+015
1968841699198753
1.84846038747861E+015
1.72181464175072E+015
1.6120431154179E+015
1.4630126416054E+015
1339622482478912
1.22799218754335E+015
1079407215055255
937371797422534
827368610401020
658372823388754
528087674533817
377691910508690
220506706299665
224317456089940
407417129646144
562705183599865
712929600961761
840399181446472
983982202141503
1.15604440903897E+015
1.29990706748839E+015
1.43040194465912E+015
1564244250242752
1.71108148676588E+015
1.85473852921943E+015
1950870861159001
2091155801280146
2.22757516067878E+015
2347696025470807
2463594908480801
2.55531335037552E+015
2701245876516788
2781052298383634
2.88259918488133E+015
2982926083136820
3082869164866668
3186006148399157
3.27466776582182E+015
3335913917127401
3.44824878954217E+015
3.47258001572109E+015
3.55418215061861E+015
3.63264521464571E+015
3.66034854315703E+015
3726433524232276
3738893853582493
3785390484117076
3.82925522990442E+015
3860769308206012
3890254642014942
3.86562184570874E+015
3.91388677380787E+015
3.92061727073962E+015
3913667450078936
3.88547064317751E+015
3895751442971418
3.8870607402123E+015
3838768396647048
3831941945583893
3800660898744294
3.71105344774059E+015
3697743238940742
3.6570861026891E+015
3.61947208317645E+015
3.5632429621703E+015
3.49926897198608E+015
3412238574797376
3.29938280852638E+015
3232571317599033
3116274910330341
3.06155363996063E+015
2.97564727688273E+015
2889014403952731
2784122830588748
2.6653316159034E+015
2587471692130868
2419469715765346
2292412738045697
2.20406639848338E+015
2076584481038913
1.95958897938424E+015
1828556759077608
1670342104115887
1.55917238901109E+015
1.43078576118476E+015
1.28432411654744E+015
1.15425829142144E+015
1.00082626452384E+015
851620331728197
708112703564988
547556767796868
401070449240037
236383002728071
252262040703089
436569365541750
584924048114460
754868410254378
906116795275747
1.05847824822147E+015
1.20860945299857E+015
1.37824402037136E+015
1.50277877520824E+015
1.64402325664348E+015
1784129996234865
1.92717019070078E+015
2.0569138840999E+015
2222133190654539
2.35882670471435E+015
2465760730304051
2613900201467742
2682589651824109
2848124236239093
2.96505119922848E+015
3.03321975572862E+015
3138152452291778
3218095951489209
3348442785142910
3.43603519938701E+015
3488398739670649
3.61663458243333E+015
3.66829902833099E+015
3699456705573060
3828528720052316
3847267191143346
3.87850711478377E+015
3.97920412183184E+015
3.97828570371691E+015
3999532689957659
4.05127938225366E+015
4.08267009095773E+015
4107083563534999
4.0950481739096E+015
4107248056331702
4094170878993851
4.12923526015761E+015
4117898964918191
4052499370495875
4057091461070487
4040532519535765
3997750684660048
3.94364626227797E+015
3.9387114783769E+015
3.85418959633791E+015
3784101957209573
3.7250353354603E+015
3647038334357186
3559802321172608
3489536481514510
3413773840899934
3.33188384360819E+015
3216601808585829
3.14407419297307E+015
3005160026157779
2897869599508551
2.81696655899702E+015
2663659272470259
2562592156629610
2433862835476818
2.33509861879E+015
2.18066729815244E+015
2.05340470443691E+015
1917547362093679
1.76092280416675E+015
1670122780386950
1509070624682110
1338594402499521
1.20377884786874E+015
1.06142129850914E+015
906337489777989
744014627218622
574256690248301
417164698624074
249338181241702
270565976656164
442651486699826
618152963821678
787418793175198
962807866885969
1.12692095938278E+015
1272678026540898
1.42262966001493E+015
1.55892564981604E+015
1.72215733507719E+015
1902564809860690
2.00548246966424E+015
2.17759676594733E+015
2.32152796306205E+015
2448214831989114
2.57181746097801E+015
2729374144752921
2832305512289532
2959280243610830
3092862102266347
3193216415987952
3.3123366162667E+015
3429373241120557
3.48957760471368E+015
3.57364713156174E+015
3.69186262145863E+015
3772532630508161
3889966779620712
3.90760863206706E+015
4.00900473350111E+015
4.06719406033464E+015
4119804339813328
4.16631467808097E+015
4.17431999418716E+015
4.21187918276757E+015
4.2269165659328E+015
4.31337123833304E+015
4324419671178223
4.33280880381005E+015
4.33315149713652E+015
4.36485748370093E+015
4.31899140888704E+015
4326146845543600
4252550026752274
4256497853873135
4.22952103521392E+015
4.19053624239542E+015
4.13414262859257E+015
4.1385291031713E+015
4.03643390735126E+015
3990046938681146
3.88416840853695E+015
3.8606733540746E+015
3.78497925212532E+015
3693233394764481
3.6147292075382E+015
3494251941686649
3359326725191395
3254448859560470
3155067794886022
3105898156405023
2.92318778246768E+015
2807960578377557
2.69642075448018E+015
2.56044004253942E+015
2.42942152996585E+015
2.30957481983499E+015
2.12807072640681E+015
2.02892269319435E+015
1.89934349259193E+015
1.75123143689436E+015
1.57152305649684E+015
1.40886709602415E+015
1.25326376421008E+015
1.10441971556718E+015
935173077039944
772229254173024
608064072290589
437548097682130
265734000753027
282578063135366
467720188917293
647266818064721
831827735964964
987219968689931
1.164223813355E+015
1.30977800606385E+015
1.46376656692362E+015
1.63375616458263E+015
1.83875531247317E+015
1.98270021732094E+015
2093280499904220
2277992202868108
2.4440202656732E+015
2.59173479711208E+015
2717667740720924
2855759443552702
2.99160307816288E+015
3.10854374888532E+015
3.22322264365311E+015
3.38143729861483E+015
3.45355368223583E+015
3.56671101863411E+015
3.66184268606041E+015
3.79016077522145E+015
3870721122406516
3.96507144904848E+015
4.05066253426603E+015
4104588756118345
4248848938826467
4236018500683669
4.30866948589396E+015
4347201923521524
4342321970552682
4403938230650840
4.42907821308021E+015
4489515608135333
4490214702521319
4525142006354491
4532064411549056
4514833791094465
4535642129877336
4509665975731394
4477466510776873
4453560224322771
4381882488159642
4412094331820674
4.35431623697891E+015
4304968397968148
4.22481928277484E+015