/*--------------------------------*- C++ -*----------------------------------*\
  =========                 |
  \\      /  F ield         | OpenFOAM: The Open Source CFD Toolbox
   \\    /   O peration     | Website:  https://openfoam.org
    \\  /    A nd           | Version:  6
     \\/     M anipulation  |
\*---------------------------------------------------------------------------*/
FoamFile
{
    version     2.0;
    format      ascii;
    class       volScalarField;
    location    "600";
    object      dnp1_s;
}
// * * * * * * * * * * * * * * * * * * * * * * * * * * * * * * * * * * * * * //

dimensions      [0 -3 -1 0 0 0 0];

internalField   nonuniform List<scalar> 
6400
(
3.55378e+13
5.77007e+13
7.80615e+13
9.88086e+13
1.25455e+14
1.46163e+14
1.61289e+14
1.85318e+14
2.03499e+14
2.26229e+14
2.38747e+14
2.6952e+14
2.78579e+14
2.93423e+14
3.19177e+14
3.32923e+14
3.61682e+14
3.63246e+14
3.90907e+14
3.96297e+14
4.25538e+14
4.32363e+14
4.32626e+14
4.45283e+14
4.67198e+14
4.66203e+14
4.85582e+14
4.89207e+14
5.04803e+14
5.15708e+14
5.52831e+14
5.27694e+14
5.39584e+14
5.47813e+14
5.59189e+14
5.41742e+14
5.68638e+14
5.53748e+14
5.57146e+14
5.46421e+14
5.77252e+14
5.52109e+14
5.70881e+14
5.46348e+14
5.4404e+14
5.40175e+14
5.49047e+14
5.44277e+14
5.20688e+14
5.36612e+14
5.11933e+14
5.30901e+14
4.98026e+14
4.90162e+14
4.75576e+14
4.67271e+14
4.52104e+14
4.46504e+14
4.23129e+14
4.10867e+14
3.93599e+14
3.8052e+14
3.64539e+14
3.47768e+14
3.36196e+14
3.10859e+14
3.06046e+14
2.71952e+14
2.71304e+14
2.44615e+14
2.26462e+14
2.06171e+14
1.80297e+14
1.6518e+14
1.41909e+14
1.32847e+14
1.02566e+14
8.08972e+13
6.26596e+13
3.57667e+13
5.39346e+13
8.4481e+13
1.24503e+14
1.63009e+14
1.91512e+14
2.27544e+14
2.50494e+14
2.86353e+14
3.29953e+14
3.41399e+14
3.72548e+14
4.04823e+14
4.47921e+14
4.54038e+14
4.91503e+14
5.32512e+14
5.51606e+14
5.81124e+14
5.92255e+14
6.21769e+14
6.3559e+14
6.73222e+14
6.73752e+14
6.91158e+14
7.26899e+14
7.35001e+14
7.56569e+14
7.60124e+14
8.05116e+14
7.94638e+14
8.15667e+14
8.04355e+14
8.57442e+14
8.25178e+14
8.4325e+14
8.45092e+14
8.58794e+14
8.57416e+14
8.76264e+14
8.68054e+14
8.80083e+14
8.83307e+14
8.74817e+14
8.57234e+14
8.41174e+14
8.35848e+14
8.51133e+14
8.21129e+14
8.25266e+14
8.15847e+14
8.07535e+14
7.97718e+14
7.8667e+14
7.59333e+14
7.35331e+14
7.14383e+14
6.96707e+14
6.75577e+14
6.68099e+14
6.33454e+14
6.07418e+14
5.84115e+14
5.58151e+14
5.24629e+14
5.18989e+14
4.95266e+14
4.60423e+14
4.30189e+14
3.98883e+14
3.86866e+14
3.49341e+14
3.13549e+14
2.75319e+14
2.4916e+14
2.24405e+14
1.87486e+14
1.56635e+14
1.20721e+14
1.00755e+14
5.23309e+13
7.34213e+13
1.19034e+14
1.60463e+14
2.17532e+14
2.45692e+14
2.90555e+14
3.31477e+14
3.77031e+14
4.26952e+14
4.4931e+14
4.85819e+14
5.26355e+14
5.81279e+14
6.01462e+14
6.65355e+14
7.03461e+14
7.25507e+14
7.56379e+14
7.93152e+14
8.34119e+14
8.42265e+14
8.97796e+14
8.90374e+14
9.19332e+14
9.6146e+14
9.79715e+14
1.00868e+15
1.05905e+15
1.05586e+15
1.05333e+15
1.07332e+15
1.10685e+15
1.1109e+15
1.1187e+15
1.12941e+15
1.14481e+15
1.15364e+15
1.15953e+15
1.12546e+15
1.14061e+15
1.13371e+15
1.15189e+15
1.15106e+15
1.15304e+15
1.1263e+15
1.10905e+15
1.1124e+15
1.09493e+15
1.0772e+15
1.07901e+15
1.07422e+15
1.04923e+15
1.03865e+15
1.00754e+15
9.76454e+14
9.54865e+14
9.11045e+14
9.12439e+14
8.89604e+14
8.50537e+14
7.98355e+14
7.89485e+14
7.5448e+14
6.97614e+14
6.77619e+14
6.56561e+14
6.09617e+14
5.73124e+14
5.256e+14
5.10131e+14
4.71586e+14
4.33281e+14
3.68526e+14
3.53606e+14
2.95657e+14
2.50739e+14
2.17635e+14
1.63189e+14
1.25081e+14
7.407e+13
8.9099e+13
1.44137e+14
2.10381e+14
2.68197e+14
3.19801e+14
3.68673e+14
4.20743e+14
4.67696e+14
5.3969e+14
5.80201e+14
6.15324e+14
6.71888e+14
7.03237e+14
7.78559e+14
8.14997e+14
8.62828e+14
9.04702e+14
9.40057e+14
1.00166e+15
1.02261e+15
1.08479e+15
1.11132e+15
1.12226e+15
1.16985e+15
1.19776e+15
1.2449e+15
1.22504e+15
1.26769e+15
1.30332e+15
1.30669e+15
1.36046e+15
1.36703e+15
1.36367e+15
1.40252e+15
1.4001e+15
1.41557e+15
1.432e+15
1.43657e+15
1.41863e+15
1.4178e+15
1.43002e+15
1.44216e+15
1.43187e+15
1.39703e+15
1.40076e+15
1.37454e+15
1.3606e+15
1.37154e+15
1.35485e+15
1.33719e+15
1.3227e+15
1.30592e+15
1.28175e+15
1.24685e+15
1.21956e+15
1.19034e+15
1.16423e+15
1.12412e+15
1.08686e+15
1.063e+15
1.01003e+15
9.72803e+14
9.23857e+14
8.84664e+14
8.59392e+14
8.04201e+14
7.61339e+14
7.32266e+14
6.6952e+14
6.27701e+14
5.84281e+14
5.33483e+14
4.74895e+14
4.25861e+14
3.76235e+14
3.11884e+14
2.6643e+14
2.07374e+14
1.45769e+14
9.07411e+13
1.04756e+14
1.91576e+14
2.42074e+14
3.13561e+14
3.73462e+14
4.46878e+14
5.05301e+14
5.67925e+14
6.28139e+14
6.93138e+14
7.56596e+14
7.93087e+14
8.43758e+14
9.26268e+14
9.95027e+14
1.04221e+15
1.09318e+15
1.14304e+15
1.16999e+15
1.22593e+15
1.25941e+15
1.30948e+15
1.3512e+15
1.39279e+15
1.44374e+15
1.47988e+15
1.50127e+15
1.52835e+15
1.54977e+15
1.59296e+15
1.59488e+15
1.60306e+15
1.64207e+15
1.62494e+15
1.66052e+15
1.66756e+15
1.68203e+15
1.72768e+15
1.71998e+15
1.73577e+15
1.71503e+15
1.72527e+15
1.72151e+15
1.69041e+15
1.64045e+15
1.66278e+15
1.6614e+15
1.62469e+15
1.64331e+15
1.59779e+15
1.5903e+15
1.52713e+15
1.52229e+15
1.53985e+15
1.486e+15
1.44197e+15
1.40769e+15
1.3522e+15
1.30379e+15
1.27547e+15
1.22737e+15
1.14756e+15
1.10435e+15
1.05621e+15
1.01565e+15
9.68114e+14
9.22161e+14
8.89511e+14
7.99936e+14
7.55127e+14
6.8666e+14
6.20882e+14
5.77713e+14
4.94939e+14
4.27047e+14
3.73295e+14
3.12696e+14
2.51168e+14
1.71127e+14
1.04453e+14
1.26334e+14
2.1497e+14
2.9341e+14
3.75506e+14
4.31401e+14
5.10184e+14
5.83464e+14
6.65674e+14
7.323e+14
8.01805e+14
8.66692e+14
9.24816e+14
9.95025e+14
1.08367e+15
1.15268e+15
1.18148e+15
1.26654e+15
1.30576e+15
1.34669e+15
1.43539e+15
1.49406e+15
1.53055e+15
1.56075e+15
1.62003e+15
1.65974e+15
1.71344e+15
1.73737e+15
1.77432e+15
1.80815e+15
1.8452e+15
1.83369e+15
1.8695e+15
1.91277e+15
1.93035e+15
1.94888e+15
1.96296e+15
1.98037e+15
2.01106e+15
2.03927e+15
1.98151e+15
1.99912e+15
2.00101e+15
1.97133e+15
1.97511e+15
1.95982e+15
1.96131e+15
1.93116e+15
1.90949e+15
1.89715e+15
1.8662e+15
1.84467e+15
1.80648e+15
1.75823e+15
1.74698e+15
1.70952e+15
1.67348e+15
1.63653e+15
1.57127e+15
1.51841e+15
1.49035e+15
1.44222e+15
1.36138e+15
1.31557e+15
1.23147e+15
1.18481e+15
1.13605e+15
1.08778e+15
1.00477e+15
9.34542e+14
8.78346e+14
8.03229e+14
7.26516e+14
6.56001e+14
5.77231e+14
5.00419e+14
4.41217e+14
3.66872e+14
2.92925e+14
1.9924e+14
1.25032e+14
1.40518e+14
2.34798e+14
3.33265e+14
4.23357e+14
4.89313e+14
5.74956e+14
6.58885e+14
7.49738e+14
8.24456e+14
9.19463e+14
9.84366e+14
1.05916e+15
1.14195e+15
1.21733e+15
1.27642e+15
1.36328e+15
1.40541e+15
1.494e+15
1.57918e+15
1.6384e+15
1.67877e+15
1.74892e+15
1.77461e+15
1.81066e+15
1.87176e+15
1.94558e+15
2.02041e+15
2.04231e+15
2.01898e+15
2.09107e+15
2.12372e+15
2.1474e+15
2.16537e+15
2.17824e+15
2.21685e+15
2.23095e+15
2.28404e+15
2.27864e+15
2.24733e+15
2.26549e+15
2.27094e+15
2.28089e+15
2.26711e+15
2.26865e+15
2.2295e+15
2.21731e+15
2.21879e+15
2.20128e+15
2.15902e+15
2.12967e+15
2.07829e+15
2.04958e+15
2.07074e+15
1.96866e+15
1.92017e+15
1.93347e+15
1.88124e+15
1.79517e+15
1.71261e+15
1.70462e+15
1.65071e+15
1.57791e+15
1.4851e+15
1.41337e+15
1.35374e+15
1.27846e+15
1.2617e+15
1.17074e+15
1.06795e+15
1.01442e+15
9.08703e+14
8.31923e+14
7.496e+14
6.65796e+14
5.64895e+14
4.97798e+14
4.01888e+14
3.39253e+14
2.43593e+14
1.50552e+14
1.5829e+14
2.71626e+14
3.79745e+14
4.74304e+14
5.56182e+14
6.60639e+14
7.54767e+14
8.26994e+14
9.41458e+14
1.03094e+15
1.10449e+15
1.19323e+15
1.3007e+15
1.35048e+15
1.43487e+15
1.5351e+15
1.61298e+15
1.68953e+15
1.74439e+15
1.82861e+15
1.87305e+15
1.93356e+15
2.01116e+15
2.05544e+15
2.11075e+15
2.15912e+15
2.24645e+15
2.23192e+15
2.33419e+15
2.38112e+15
2.36721e+15
2.39238e+15
2.41536e+15
2.44349e+15
2.48912e+15
2.47912e+15
2.52336e+15
2.54588e+15
2.55825e+15
2.55624e+15
2.56224e+15
2.53992e+15
2.52642e+15
2.57484e+15
2.50741e+15
2.45565e+15
2.48477e+15
2.44705e+15
2.4291e+15
2.35807e+15
2.3487e+15
2.33589e+15
2.24754e+15
2.20679e+15
2.15842e+15
2.12797e+15
2.07916e+15
2.05343e+15
1.97521e+15
1.87746e+15
1.81728e+15
1.73556e+15
1.6612e+15
1.56702e+15
1.52811e+15
1.44918e+15
1.37624e+15
1.30976e+15
1.23165e+15
1.12505e+15
1.0286e+15
9.29955e+14
8.51996e+14
7.38247e+14
6.54484e+14
5.52163e+14
4.54257e+14
3.80848e+14
2.76844e+14
1.62618e+14
1.71583e+14
2.93883e+14
4.2691e+14
5.27294e+14
6.38525e+14
7.14646e+14
8.35677e+14
9.42388e+14
1.02779e+15
1.13292e+15
1.24771e+15
1.30203e+15
1.42713e+15
1.54244e+15
1.63738e+15
1.65619e+15
1.76412e+15
1.90298e+15
1.94803e+15
2.01623e+15
2.09732e+15
2.15081e+15
2.1895e+15
2.29828e+15
2.33012e+15
2.39128e+15
2.47336e+15
2.49297e+15
2.53466e+15
2.58624e+15
2.64395e+15
2.66515e+15
2.7357e+15
2.74121e+15
2.7413e+15
2.7701e+15
2.80254e+15
2.8339e+15
2.85407e+15
2.84156e+15
2.82837e+15
2.83077e+15
2.79075e+15
2.7812e+15
2.7746e+15
2.72423e+15
2.71218e+15
2.67402e+15
2.67965e+15
2.64605e+15
2.58896e+15
2.53623e+15
2.48267e+15
2.45785e+15
2.4005e+15
2.35618e+15
2.31764e+15
2.25437e+15
2.15321e+15
2.10138e+15
1.98905e+15
1.9591e+15
1.87779e+15
1.78073e+15
1.65562e+15
1.58319e+15
1.52996e+15
1.42357e+15
1.34486e+15
1.23309e+15
1.15601e+15
1.06253e+15
9.40508e+14
8.23065e+14
7.24146e+14
6.22909e+14
5.10953e+14
4.16208e+14
2.90366e+14
1.82399e+14
1.92956e+14
3.11399e+14
4.53765e+14
5.73546e+14
6.96393e+14
7.9624e+14
9.154e+14
1.01429e+15
1.13497e+15
1.25113e+15
1.37664e+15
1.46287e+15
1.53701e+15
1.67773e+15
1.77634e+15
1.87047e+15
1.96448e+15
2.05466e+15
2.14116e+15
2.2231e+15
2.32186e+15
2.36079e+15
2.4375e+15
2.52746e+15
2.59625e+15
2.67978e+15
2.72003e+15
2.77532e+15
2.83002e+15
2.86672e+15
2.91836e+15
2.95322e+15
2.99427e+15
3.00244e+15
3.05559e+15
3.03768e+15
3.08309e+15
3.07967e+15
3.07322e+15
3.09993e+15
3.12993e+15
3.09848e+15
3.09449e+15
3.06128e+15
3.05434e+15
3.0111e+15
2.98883e+15
2.9532e+15
2.93638e+15
2.89561e+15
2.86256e+15
2.81369e+15
2.76474e+15
2.71634e+15
2.6296e+15
2.62371e+15
2.52756e+15
2.42017e+15
2.37979e+15
2.29245e+15
2.1959e+15
2.08761e+15
1.99503e+15
1.91563e+15
1.84349e+15
1.77588e+15
1.67022e+15
1.57818e+15
1.43346e+15
1.36136e+15
1.2584e+15
1.14269e+15
9.94219e+14
8.97463e+14
7.82674e+14
6.82857e+14
5.60988e+14
4.42512e+14
3.28214e+14
1.89987e+14
2.18263e+14
3.42195e+14
4.91975e+14
6.17431e+14
7.27016e+14
8.66813e+14
9.95507e+14
1.10282e+15
1.24804e+15
1.36493e+15
1.52636e+15
1.59358e+15
1.66152e+15
1.79815e+15
1.91944e+15
2.0119e+15
2.12264e+15
2.21657e+15
2.32119e+15
2.44419e+15
2.5202e+15
2.61084e+15
2.65876e+15
2.67905e+15
2.79377e+15
2.88591e+15
2.97178e+15
2.99465e+15
3.09064e+15
3.10676e+15
3.14528e+15
3.16865e+15
3.21019e+15
3.26622e+15
3.31686e+15
3.32745e+15
3.33334e+15
3.38665e+15
3.35828e+15
3.43554e+15
3.40824e+15
3.37386e+15
3.39461e+15
3.34481e+15
3.32226e+15
3.24981e+15
3.26767e+15
3.24079e+15
3.19171e+15
3.16427e+15
3.13e+15
3.05298e+15
2.99077e+15
2.92796e+15
2.88515e+15
2.83316e+15
2.68765e+15
2.66058e+15
2.57387e+15
2.49242e+15
2.41597e+15
2.27359e+15
2.20705e+15
2.09757e+15
2.00791e+15
1.94862e+15
1.81461e+15
1.68473e+15
1.59967e+15
1.4661e+15
1.36551e+15
1.23588e+15
1.1028e+15
9.87445e+14
8.68396e+14
7.45169e+14
5.97092e+14
4.87153e+14
3.49706e+14
2.04967e+14
2.49915e+14
3.7831e+14
5.19869e+14
6.69926e+14
8.04606e+14
9.30516e+14
1.07526e+15
1.19446e+15
1.31329e+15
1.45951e+15
1.60009e+15
1.72281e+15
1.79495e+15
1.93081e+15
2.05708e+15
2.19518e+15
2.32531e+15
2.4149e+15
2.51738e+15
2.61414e+15
2.69529e+15
2.82578e+15
2.84191e+15
2.94932e+15
3.05129e+15
3.11759e+15
3.20244e+15
3.24866e+15
3.26963e+15
3.36906e+15
3.43042e+15
3.47881e+15
3.54791e+15
3.55272e+15
3.55706e+15
3.58447e+15
3.66424e+15
3.65942e+15
3.60925e+15
3.64659e+15
3.64961e+15
3.68187e+15
3.64035e+15
3.60561e+15
3.55366e+15
3.5556e+15
3.52039e+15
3.46349e+15
3.45476e+15
3.40331e+15
3.37247e+15
3.30807e+15
3.23128e+15
3.20343e+15
3.13662e+15
3.03659e+15
2.97708e+15
2.86471e+15
2.76675e+15
2.70983e+15
2.6325e+15
2.50547e+15
2.4072e+15
2.29355e+15
2.18609e+15
2.06695e+15
1.96625e+15
1.8239e+15
1.69782e+15
1.58961e+15
1.46025e+15
1.35523e+15
1.19534e+15
1.0637e+15
9.29812e+14
7.94458e+14
6.70337e+14
5.2429e+14
3.74235e+14
2.25096e+14
2.59012e+14
4.1137e+14
5.68666e+14
7.09572e+14
8.60478e+14
1.01005e+15
1.14929e+15
1.32744e+15
1.41799e+15
1.56945e+15
1.71608e+15
1.85017e+15
1.97957e+15
2.10484e+15
2.20335e+15
2.36029e+15
2.45626e+15
2.56014e+15
2.67145e+15
2.77739e+15
2.88771e+15
3.05268e+15
3.09746e+15
3.19034e+15
3.32355e+15
3.37605e+15
3.45155e+15
3.50131e+15
3.56813e+15
3.63521e+15
3.694e+15
3.70755e+15
3.7534e+15
3.8675e+15
3.83658e+15
3.89804e+15
3.89956e+15
3.89038e+15
3.91569e+15
3.908e+15
3.95194e+15
3.90071e+15
3.93228e+15
3.90083e+15
3.90321e+15
3.85316e+15
3.81039e+15
3.78827e+15
3.73969e+15
3.69687e+15
3.64883e+15
3.57459e+15
3.52539e+15
3.42442e+15
3.36115e+15
3.28768e+15
3.20165e+15
3.09738e+15
2.99398e+15
2.8971e+15
2.80356e+15
2.74875e+15
2.58688e+15
2.50024e+15
2.35696e+15
2.23699e+15
2.1027e+15
1.93854e+15
1.85596e+15
1.70253e+15
1.56314e+15
1.43896e+15
1.28808e+15
1.1195e+15
1.00304e+15
8.36625e+14
7.10614e+14
5.6121e+14
4.10361e+14
2.34674e+14
2.74063e+14
4.53177e+14
6.09772e+14
7.57616e+14
9.34044e+14
1.09104e+15
1.22493e+15
1.38171e+15
1.49555e+15
1.68958e+15
1.84636e+15
1.97844e+15
2.13842e+15
2.27212e+15
2.36552e+15
2.48893e+15
2.67987e+15
2.75282e+15
2.92152e+15
3.00203e+15
3.15797e+15
3.20234e+15
3.30992e+15
3.40001e+15
3.52946e+15
3.66384e+15
3.69013e+15
3.78095e+15
3.78612e+15
3.89676e+15
3.918e+15
3.99555e+15
4.06897e+15
4.11646e+15
4.08709e+15
4.16882e+15
4.19369e+15
4.19331e+15
4.22921e+15
4.21322e+15
4.24515e+15
4.22683e+15
4.2024e+15
4.1684e+15
4.11672e+15
4.07324e+15
4.06118e+15
4.02728e+15
4.00875e+15
3.94739e+15
3.89192e+15
3.85592e+15
3.73498e+15
3.67808e+15
3.60064e+15
3.51362e+15
3.41463e+15
3.35309e+15
3.21037e+15
3.10139e+15
3.01901e+15
2.9107e+15
2.77982e+15
2.66171e+15
2.50526e+15
2.36478e+15
2.24244e+15
2.12173e+15
1.9933e+15
1.8437e+15
1.6543e+15
1.53892e+15
1.38779e+15
1.21364e+15
1.04377e+15
9.18679e+14
7.3596e+14
5.90096e+14
4.26929e+14
2.56261e+14
2.69896e+14
4.7019e+14
6.39036e+14
8.28614e+14
9.91931e+14
1.1632e+15
1.33257e+15
1.47962e+15
1.6132e+15
1.79852e+15
1.91794e+15
2.10371e+15
2.28015e+15
2.41723e+15
2.53775e+15
2.67233e+15
2.82661e+15
2.93227e+15
3.05e+15
3.19586e+15
3.34386e+15
3.41288e+15
3.516e+15
3.61977e+15
3.77024e+15
3.81406e+15
3.92464e+15
4.04383e+15
4.08061e+15
4.14722e+15
4.25304e+15
4.26975e+15
4.34006e+15
4.38564e+15
4.43456e+15
4.41432e+15
4.47609e+15
4.45576e+15
4.52942e+15
4.50304e+15
4.49199e+15
4.48493e+15
4.50442e+15
4.41584e+15
4.42087e+15
4.36462e+15
4.32352e+15
4.28258e+15
4.26029e+15
4.21536e+15
4.16298e+15
4.0782e+15
4.00125e+15
3.93585e+15
3.85735e+15
3.72642e+15
3.59714e+15
3.52459e+15
3.41051e+15
3.30893e+15
3.20142e+15
3.06819e+15
2.9392e+15
2.79687e+15
2.65668e+15
2.51833e+15
2.3943e+15
2.26033e+15
2.12631e+15
1.92243e+15
1.80833e+15
1.64194e+15
1.45413e+15
1.3111e+15
1.14623e+15
9.91319e+14
7.98584e+14
6.39753e+14
4.62668e+14
2.75558e+14
2.87699e+14
4.99164e+14
6.768e+14
8.57509e+14
1.02854e+15
1.23118e+15
1.41413e+15
1.58767e+15
1.71621e+15
1.87869e+15
2.06066e+15
2.23189e+15
2.38047e+15
2.54599e+15
2.6924e+15
2.87048e+15
2.98818e+15
3.10529e+15
3.25639e+15
3.36562e+15
3.53815e+15
3.62199e+15
3.75471e+15
3.89508e+15
4.007e+15
4.07634e+15
4.23232e+15
4.178e+15
4.30746e+15
4.38997e+15
4.43273e+15
4.54264e+15
4.55997e+15
4.67564e+15
4.65825e+15
4.71261e+15
4.76811e+15
4.70633e+15
4.77418e+15
4.75228e+15
4.72569e+15
4.77501e+15
4.75414e+15
4.72068e+15
4.7274e+15
4.68114e+15
4.61833e+15
4.52858e+15
4.53182e+15
4.48384e+15
4.37595e+15
4.35889e+15
4.24614e+15
4.12521e+15
4.04052e+15
3.95687e+15
3.79475e+15
3.77054e+15
3.62826e+15
3.49009e+15
3.3868e+15
3.28758e+15
3.17557e+15
2.95115e+15
2.85541e+15
2.68094e+15
2.5348e+15
2.37981e+15
2.21676e+15
2.07544e+15
1.88357e+15
1.72471e+15
1.58099e+15
1.38969e+15
1.20683e+15
1.0652e+15
8.47626e+14
6.7989e+14
4.86262e+14
2.83893e+14
2.88799e+14
5.24532e+14
7.24458e+14
9.17866e+14
1.08198e+15
1.26683e+15
1.48836e+15
1.67357e+15
1.84158e+15
2.0139e+15
2.20294e+15
2.3879e+15
2.51166e+15
2.69227e+15
2.86791e+15
3.02256e+15
3.17177e+15
3.28985e+15
3.47774e+15
3.58048e+15
3.71122e+15
3.84039e+15
3.96906e+15
4.10184e+15
4.21599e+15
4.29484e+15
4.43947e+15
4.4708e+15
4.57585e+15
4.67687e+15
4.71254e+15
4.79762e+15
4.81366e+15
4.87353e+15
4.93e+15
4.97057e+15
5.00853e+15
4.97682e+15
5.03896e+15
5.04762e+15
5.03868e+15
5.00237e+15
5.01561e+15
5.00442e+15
4.94225e+15
4.93346e+15
4.89319e+15
4.77782e+15
4.76068e+15
4.70834e+15
4.65991e+15
4.58752e+15
4.50516e+15
4.39311e+15
4.24781e+15
4.16179e+15
4.01207e+15
3.94162e+15
3.83102e+15
3.71948e+15
3.58444e+15
3.4315e+15
3.33126e+15
3.11496e+15
2.95138e+15
2.83764e+15
2.67351e+15
2.52289e+15
2.35419e+15
2.15049e+15
2.00737e+15
1.84207e+15
1.65351e+15
1.48606e+15
1.28852e+15
1.09642e+15
9.11664e+14
7.04956e+14
5.16361e+14
3.04333e+14
3.24776e+14
5.62064e+14
7.53064e+14
9.7186e+14
1.16659e+15
1.36274e+15
1.55603e+15
1.77443e+15
1.93476e+15
2.11661e+15
2.29699e+15
2.48115e+15
2.64819e+15
2.8609e+15
3.03689e+15
3.17456e+15
3.36528e+15
3.45372e+15
3.66684e+15
3.81737e+15
3.90514e+15
4.04023e+15
4.14316e+15
4.31097e+15
4.42375e+15
4.49116e+15
4.65626e+15
4.72278e+15
4.76289e+15
4.92906e+15
4.95319e+15
4.99341e+15
5.12305e+15
5.12187e+15
5.14922e+15
5.21585e+15
5.25626e+15
5.28769e+15
5.2722e+15
5.2879e+15
5.27107e+15
5.31621e+15
5.30162e+15
5.21742e+15
5.22333e+15
5.20201e+15
5.14693e+15
5.07727e+15
5.07092e+15
4.9621e+15
4.87187e+15
4.79582e+15
4.6954e+15
4.58309e+15
4.49263e+15
4.39509e+15
4.28966e+15
4.14123e+15
4.04786e+15
3.86901e+15
3.73088e+15
3.62672e+15
3.42935e+15
3.29923e+15
3.13349e+15
3.00634e+15
2.80751e+15
2.64367e+15
2.46876e+15
2.26711e+15
2.15021e+15
1.94286e+15
1.72338e+15
1.54981e+15
1.36653e+15
1.16687e+15
9.57886e+14
7.39331e+14
5.37081e+14
3.21012e+14
3.48342e+14
5.69895e+14
7.95845e+14
1.01377e+15
1.23957e+15
1.45086e+15
1.63852e+15
1.83157e+15
2.00705e+15
2.2172e+15
2.44947e+15
2.58197e+15
2.80356e+15
2.98887e+15
3.15197e+15
3.3111e+15
3.51395e+15
3.64647e+15
3.80994e+15
3.98193e+15
4.11113e+15
4.26449e+15
4.41517e+15
4.49268e+15
4.60092e+15
4.75311e+15
4.85697e+15
5.00816e+15
5.03088e+15
5.16142e+15
5.23634e+15
5.30407e+15
5.36395e+15
5.37426e+15
5.42261e+15
5.44197e+15
5.55328e+15
5.5675e+15
5.5783e+15
5.57874e+15
5.61956e+15
5.56051e+15
5.56973e+15
5.47497e+15
5.48006e+15
5.44532e+15
5.39513e+15
5.32253e+15
5.32818e+15
5.19673e+15
5.13701e+15
5.0007e+15
4.97045e+15
4.873e+15
4.75488e+15
4.65381e+15
4.4987e+15
4.32499e+15
4.18996e+15
4.06201e+15
3.99871e+15
3.76348e+15
3.61513e+15
3.47152e+15
3.29646e+15
3.12777e+15
2.97348e+15
2.7398e+15
2.61215e+15
2.44532e+15
2.25463e+15
2.02327e+15
1.81386e+15
1.61352e+15
1.42189e+15
1.20399e+15
9.94212e+14
7.82856e+14
5.63324e+14
3.42121e+14
3.63807e+14
6.02169e+14
8.33328e+14
1.07094e+15
1.271e+15
1.49889e+15
1.68628e+15
1.88454e+15
2.10339e+15
2.36732e+15
2.55264e+15
2.69501e+15
2.93282e+15
3.14657e+15
3.33675e+15
3.49888e+15
3.67667e+15
3.85156e+15
4.00211e+15
4.14976e+15
4.35345e+15
4.4463e+15
4.59199e+15
4.71446e+15
4.87967e+15
4.98339e+15
5.10486e+15
5.21505e+15
5.28448e+15
5.47021e+15
5.45369e+15
5.54722e+15
5.59683e+15
5.59055e+15
5.66988e+15
5.70225e+15
5.78006e+15
5.78096e+15
5.82592e+15
5.83484e+15
5.81265e+15
5.83944e+15
5.806e+15
5.76454e+15
5.73377e+15
5.64148e+15
5.68038e+15
5.60599e+15
5.54246e+15
5.43927e+15
5.32954e+15
5.28164e+15
5.18343e+15
5.0633e+15
4.98128e+15
4.83071e+15
4.71201e+15
4.54255e+15
4.42099e+15
4.28902e+15
4.13264e+15
3.93823e+15
3.79187e+15
3.65641e+15
3.48384e+15
3.25193e+15
3.07241e+15
2.92666e+15
2.71377e+15
2.53603e+15
2.35754e+15
2.10823e+15
1.92006e+15
1.72998e+15
1.47803e+15
1.26105e+15
1.01877e+15
8.22873e+14
5.9876e+14
3.63336e+14
3.92877e+14
6.49362e+14
8.60866e+14
1.10931e+15
1.30101e+15
1.57031e+15
1.80035e+15
1.97624e+15
2.25855e+15
2.45503e+15
2.61414e+15
2.85208e+15
3.02736e+15
3.28827e+15
3.4968e+15
3.65281e+15
3.86398e+15
4.02885e+15
4.17074e+15
4.35294e+15
4.47097e+15
4.63051e+15
4.74837e+15
4.99464e+15
5.12178e+15
5.1884e+15
5.28538e+15
5.40803e+15
5.4941e+15
5.63063e+15
5.67839e+15
5.77746e+15
5.81934e+15
5.91051e+15
5.93029e+15
5.97471e+15
6.01675e+15
6.08399e+15
6.02558e+15
6.07102e+15
6.05392e+15
6.02205e+15
6.10035e+15
5.98806e+15
6.00936e+15
5.93899e+15
5.95177e+15
5.88074e+15
5.78736e+15
5.65707e+15
5.56955e+15
5.50362e+15
5.44234e+15
5.3149e+15
5.1622e+15
5.07936e+15
4.89626e+15
4.77397e+15
4.59986e+15
4.49245e+15
4.28964e+15
4.11095e+15
3.91984e+15
3.83642e+15
3.64548e+15
3.43321e+15
3.2502e+15
3.07727e+15
2.82488e+15
2.64206e+15
2.43907e+15
2.20624e+15
1.98787e+15
1.78585e+15
1.55594e+15
1.31049e+15
1.09286e+15
8.56419e+14
6.12808e+14
3.78829e+14
3.89404e+14
6.71606e+14
9.38692e+14
1.13846e+15
1.37357e+15
1.64196e+15
1.85342e+15
2.09857e+15
2.31245e+15
2.54673e+15
2.73682e+15
2.96026e+15
3.19831e+15
3.40157e+15
3.61746e+15
3.81298e+15
4.03272e+15
4.20332e+15
4.39069e+15
4.5602e+15
4.68903e+15
4.84225e+15
4.93304e+15
5.15683e+15
5.30733e+15
5.39955e+15
5.52017e+15
5.62973e+15
5.71748e+15
5.86448e+15
5.94593e+15
6.04271e+15
6.0715e+15
6.08473e+15
6.17747e+15
6.24981e+15
6.30916e+15
6.27708e+15
6.31945e+15
6.31209e+15
6.28582e+15
6.31956e+15
6.32695e+15
6.3047e+15
6.27154e+15
6.18459e+15
6.13461e+15
6.04506e+15
5.9852e+15
5.89528e+15
5.86127e+15
5.74928e+15
5.67036e+15
5.54013e+15
5.37734e+15
5.29403e+15
5.12206e+15
5.00924e+15
4.821e+15
4.67772e+15
4.52981e+15
4.3438e+15
4.14199e+15
3.97455e+15
3.81923e+15
3.60175e+15
3.41581e+15
3.19667e+15
2.96465e+15
2.75528e+15
2.57763e+15
2.28446e+15
2.07927e+15
1.82393e+15
1.61218e+15
1.36965e+15
1.14172e+15
8.91671e+14
6.42344e+14
3.9985e+14
4.17217e+14
7.11201e+14
9.50594e+14
1.18062e+15
1.46563e+15
1.70794e+15
1.93229e+15
2.17109e+15
2.36317e+15
2.62556e+15
2.83386e+15
3.06329e+15
3.32072e+15
3.51759e+15
3.75614e+15
3.99153e+15
4.16788e+15
4.3894e+15
4.54792e+15
4.69306e+15
4.8698e+15
5.03285e+15
5.19146e+15
5.33262e+15
5.506e+15
5.68984e+15
5.74681e+15
5.85125e+15
5.97383e+15
6.1093e+15
6.18623e+15
6.22491e+15
6.3577e+15
6.4432e+15
6.44167e+15
6.52735e+15
6.52664e+15
6.59446e+15
6.57699e+15
6.57472e+15
6.55239e+15
6.57117e+15
6.56245e+15
6.59766e+15
6.47931e+15
6.47716e+15
6.35297e+15
6.27754e+15
6.21828e+15
6.18026e+15
6.11008e+15
5.95181e+15
5.81389e+15
5.71089e+15
5.58755e+15
5.44118e+15
5.27641e+15
5.15452e+15
4.98815e+15
4.84291e+15
4.68458e+15
4.51329e+15
4.27402e+15
4.15781e+15
3.9294e+15
3.71897e+15
3.50687e+15
3.32279e+15
3.06401e+15
2.8827e+15
2.64995e+15
2.38052e+15
2.16763e+15
1.91041e+15
1.68927e+15
1.42463e+15
1.16015e+15
9.18314e+14
6.79535e+14
4.20064e+14
4.35809e+14
7.30962e+14
1.00152e+15
1.266e+15
1.49962e+15
1.77319e+15
2.00038e+15
2.23513e+15
2.48009e+15
2.77238e+15
2.97295e+15
3.24173e+15
3.47281e+15
3.65101e+15
3.89384e+15
4.06761e+15
4.31186e+15
4.52014e+15
4.70128e+15
4.86004e+15
5.05572e+15
5.23471e+15
5.41952e+15
5.58254e+15
5.69875e+15
5.84204e+15
6.02053e+15
6.08782e+15
6.16614e+15
6.23922e+15
6.42416e+15
6.46486e+15
6.53022e+15
6.64529e+15
6.71214e+15
6.75751e+15
6.7515e+15
6.82255e+15
6.81646e+15
6.8736e+15
6.83245e+15
6.80479e+15
6.74927e+15
6.78575e+15
6.7311e+15
6.6947e+15
6.58673e+15
6.48812e+15
6.49858e+15
6.37573e+15
6.29572e+15
6.18077e+15
6.09177e+15
5.90508e+15
5.81292e+15
5.6972e+15
5.45888e+15
5.314e+15
5.21826e+15
5.03119e+15
4.86246e+15
4.69574e+15
4.4517e+15
4.32608e+15
4.12235e+15
3.8843e+15
3.64218e+15
3.4274e+15
3.21383e+15
2.95897e+15
2.71303e+15
2.49414e+15
2.28194e+15
1.98467e+15
1.77859e+15
1.48319e+15
1.22434e+15
9.67997e+14
7.04227e+14
4.07783e+14
4.51253e+14
7.37949e+14
1.0341e+15
1.27953e+15
1.55222e+15
1.83059e+15
2.09781e+15
2.34277e+15
2.59461e+15
2.842e+15
3.06421e+15
3.3174e+15
3.55339e+15
3.79858e+15
4.03499e+15
4.27494e+15
4.49058e+15
4.62282e+15
4.84799e+15
5.049e+15
5.2608e+15
5.41481e+15
5.5906e+15
5.76258e+15
5.87583e+15
6.01435e+15
6.17144e+15
6.29891e+15
6.36626e+15
6.51724e+15
6.59732e+15
6.682e+15
6.7768e+15
6.86194e+15
6.93437e+15
7.03445e+15
7.02859e+15
7.04071e+15
7.06083e+15
7.03009e+15
7.04188e+15
7.07139e+15
7.09239e+15
7.0386e+15
7.02222e+15
6.99668e+15
6.84496e+15
6.74843e+15
6.68341e+15
6.57743e+15
6.51302e+15
6.42635e+15
6.2979e+15
6.1813e+15
5.99519e+15
5.93419e+15
5.71381e+15
5.55647e+15
5.38266e+15
5.20508e+15
4.99904e+15
4.88611e+15
4.62552e+15
4.44034e+15
4.22272e+15
4.03517e+15
3.78405e+15
3.54243e+15
3.30874e+15
3.07931e+15
2.82647e+15
2.578e+15
2.29244e+15
2.04208e+15
1.80741e+15
1.51929e+15
1.27524e+15
1.00201e+15
7.27759e+14
4.22776e+14
4.62873e+14
7.62015e+14
1.05076e+15
1.33804e+15
1.61046e+15
1.88867e+15
2.15556e+15
2.42993e+15
2.65475e+15
2.92556e+15
3.2182e+15
3.45278e+15
3.69137e+15
3.92088e+15
4.15737e+15
4.37585e+15
4.59664e+15
4.75382e+15
5.04185e+15
5.20469e+15
5.32371e+15
5.56221e+15
5.73341e+15
5.89505e+15
6.07178e+15
6.21628e+15
6.39349e+15
6.51093e+15
6.61659e+15
6.70815e+15
6.85931e+15
6.99631e+15
7.04158e+15
7.07255e+15
7.19531e+15
7.18763e+15
7.28048e+15
7.31756e+15
7.32686e+15
7.36166e+15
7.32317e+15
7.33411e+15
7.26615e+15
7.31415e+15
7.25194e+15
7.15601e+15
7.10377e+15
7.02017e+15
6.97822e+15
6.87352e+15
6.73584e+15
6.63456e+15
6.50426e+15
6.34764e+15
6.24362e+15
6.08939e+15
5.92943e+15
5.70355e+15
5.55398e+15
5.34711e+15
5.11022e+15
4.98254e+15
4.77835e+15
4.58358e+15
4.38019e+15
4.16112e+15
3.95704e+15
3.69573e+15
3.47073e+15
3.18236e+15
2.92013e+15
2.67145e+15
2.35867e+15
2.13895e+15
1.85584e+15
1.57651e+15
1.30268e+15
1.03257e+15
7.53352e+14
4.47512e+14
4.78761e+14
7.736e+14
1.08524e+15
1.39046e+15
1.66755e+15
1.92495e+15
2.20594e+15
2.48113e+15
2.77892e+15
2.99476e+15
3.25862e+15
3.53456e+15
3.77597e+15
4.04585e+15
4.29853e+15
4.48986e+15
4.73456e+15
4.92553e+15
5.12513e+15
5.36443e+15
5.58264e+15
5.73463e+15
5.94305e+15
6.09534e+15
6.32805e+15
6.40633e+15
6.58093e+15
6.70764e+15
6.78887e+15
6.91857e+15
7.02963e+15
7.12574e+15
7.25976e+15
7.3503e+15
7.31874e+15
7.44293e+15
7.44524e+15
7.56024e+15
7.55468e+15
7.56098e+15
7.57289e+15
7.5692e+15
7.5244e+15
7.49372e+15
7.50835e+15
7.48393e+15
7.27572e+15
7.28865e+15
7.15329e+15
7.09196e+15
6.95916e+15
6.88751e+15
6.69643e+15
6.53864e+15
6.40708e+15
6.27279e+15
6.09982e+15
5.93192e+15
5.74942e+15
5.54463e+15
5.35004e+15
5.1613e+15
4.95296e+15
4.68781e+15
4.4837e+15
4.26147e+15
4.02282e+15
3.78736e+15
3.51526e+15
3.24559e+15
2.94755e+15
2.76346e+15
2.46083e+15
2.19516e+15
1.91574e+15
1.64393e+15
1.36413e+15
1.06835e+15
7.6236e+14
4.63902e+14
4.87801e+14
7.98849e+14
1.10944e+15
1.42555e+15
1.7087e+15
1.97583e+15
2.27842e+15
2.56099e+15
2.84837e+15
3.11874e+15
3.41689e+15
3.63537e+15
3.93322e+15
4.14701e+15
4.35907e+15
4.64142e+15
4.84061e+15
5.09527e+15
5.2912e+15
5.55065e+15
5.73814e+15
5.88007e+15
6.08376e+15
6.30562e+15
6.43314e+15
6.6425e+15
6.81776e+15
6.90263e+15
7.05395e+15
7.12865e+15
7.27665e+15
7.43437e+15
7.48538e+15
7.54547e+15
7.54946e+15
7.66475e+15
7.71946e+15
7.71482e+15
7.72227e+15
7.82505e+15
7.84571e+15
7.77089e+15
7.7345e+15
7.8014e+15
7.7226e+15
7.66828e+15
7.44766e+15
7.46963e+15
7.42002e+15
7.30044e+15
7.17364e+15
7.0798e+15
6.91921e+15
6.75815e+15
6.57055e+15
6.47299e+15
6.28202e+15
6.08512e+15
5.90986e+15
5.74033e+15
5.52456e+15
5.27352e+15
5.07676e+15
4.85321e+15
4.58966e+15
4.42758e+15
4.20094e+15
3.87014e+15
3.62549e+15
3.36461e+15
3.08634e+15
2.82049e+15
2.54436e+15
2.2408e+15
1.98781e+15
1.67957e+15
1.40192e+15
1.08474e+15
7.84577e+14
4.66503e+14
4.9966e+14
8.254e+14
1.1506e+15
1.46042e+15
1.75069e+15
2.04337e+15
2.35975e+15
2.66082e+15
2.91159e+15
3.24446e+15
3.50657e+15
3.7405e+15
4.01925e+15
4.26677e+15
4.49949e+15
4.76455e+15
4.98767e+15
5.18953e+15
5.4595e+15
5.67187e+15
5.87393e+15
6.06654e+15
6.27576e+15
6.5265e+15
6.64021e+15
6.76454e+15
6.98796e+15
7.08926e+15
7.1978e+15
7.33166e+15
7.44035e+15
7.52598e+15
7.67008e+15
7.7282e+15
7.85023e+15
7.90282e+15
7.98655e+15
7.98838e+15
7.99475e+15
8.07341e+15
8.06499e+15
8.00054e+15
8.00889e+15
7.97266e+15
7.87625e+15
7.8083e+15
7.76684e+15
7.66713e+15
7.62783e+15
7.48661e+15
7.41565e+15
7.23615e+15
7.08907e+15
6.97564e+15
6.82491e+15
6.58965e+15
6.46973e+15
6.28947e+15
6.09963e+15
5.91782e+15
5.64946e+15
5.43816e+15
5.25243e+15
5.0038e+15
4.79307e+15
4.52718e+15
4.21719e+15
4.00254e+15
3.71004e+15
3.43012e+15
3.16217e+15
2.92036e+15
2.6184e+15
2.34716e+15
2.06936e+15
1.71971e+15
1.44772e+15
1.147e+15
8.26071e+14
4.83553e+14
5.08661e+14
8.52157e+14
1.20521e+15
1.49472e+15
1.81301e+15
2.13855e+15
2.42547e+15
2.76664e+15
3.02741e+15
3.29737e+15
3.59838e+15
3.86254e+15
4.1712e+15
4.35792e+15
4.63863e+15
4.91096e+15
5.12739e+15
5.37168e+15
5.60478e+15
5.82026e+15
6.04291e+15
6.23931e+15
6.50788e+15
6.64928e+15
6.80866e+15
6.9946e+15
7.21427e+15
7.28683e+15
7.38026e+15
7.60371e+15
7.68395e+15
7.79108e+15
7.88244e+15
7.97329e+15
8.06898e+15
8.18758e+15
8.2245e+15
8.21472e+15
8.21216e+15
8.18364e+15
8.24375e+15
8.26399e+15
8.21745e+15
8.13894e+15
8.0846e+15
8.02678e+15
7.96546e+15
7.9261e+15
7.78536e+15
7.6783e+15
7.52498e+15
7.43217e+15
7.28184e+15
7.13372e+15
7.01306e+15
6.83981e+15
6.62418e+15
6.42453e+15
6.23947e+15
6.01742e+15
5.82601e+15
5.60908e+15
5.39771e+15
5.18613e+15
4.90046e+15
4.65617e+15
4.36198e+15
4.10799e+15
3.77668e+15
3.50484e+15
3.21863e+15
2.98373e+15
2.7153e+15
2.4066e+15
2.09928e+15
1.78278e+15
1.49738e+15
1.16977e+15
8.38218e+14
4.99083e+14
5.16123e+14
8.87684e+14
1.21952e+15
1.55395e+15
1.87326e+15
2.16195e+15
2.47328e+15
2.81023e+15
3.09068e+15
3.3755e+15
3.66782e+15
4.00845e+15
4.24891e+15
4.51158e+15
4.79587e+15
5.0301e+15
5.26611e+15
5.50409e+15
5.74368e+15
5.99141e+15
6.15278e+15
6.41431e+15
6.57712e+15
6.82931e+15
6.98505e+15
7.12451e+15
7.33699e+15
7.4693e+15
7.64737e+15
7.78813e+15
7.93831e+15
7.99308e+15
8.06355e+15
8.25517e+15
8.25916e+15
8.34775e+15
8.37203e+15
8.40848e+15
8.42941e+15
8.36273e+15
8.44374e+15
8.3781e+15
8.38118e+15
8.3616e+15
8.31978e+15
8.26445e+15
8.12992e+15
8.0372e+15
8.00269e+15
7.88055e+15
7.79581e+15
7.62411e+15
7.49109e+15
7.32174e+15
7.1829e+15
6.98563e+15
6.75095e+15
6.55705e+15
6.40266e+15
6.18399e+15
5.97973e+15
5.69466e+15
5.5001e+15
5.32473e+15