/*--------------------------------*- C++ -*----------------------------------*\
  =========                 |
  \\      /  F ield         | OpenFOAM: The Open Source CFD Toolbox
   \\    /   O peration     | Website:  https://openfoam.org
    \\  /    A nd           | Version:  6
     \\/     M anipulation  |
\*---------------------------------------------------------------------------*/
FoamFile
{
    version     2.0;
    format      ascii;
    class       volScalarField;
    location    "600";
    object      dnp1;
}
// * * * * * * * * * * * * * * * * * * * * * * * * * * * * * * * * * * * * * //

dimensions      [0 -3 0 0 0 0 0];

internalField   nonuniform List<scalar> 
6400
(
3.18149e+14
9.00227e+14
1.44624e+15
1.95985e+15
2.44222e+15
2.89452e+15
3.31827e+15
3.72784e+15
4.11669e+15
4.48332e+15
4.83582e+15
5.18906e+15
5.52469e+15
5.84852e+15
6.17392e+15
6.48234e+15
6.77937e+15
7.05315e+15
7.32538e+15
7.57909e+15
7.82892e+15
8.05774e+15
8.26462e+15
8.47343e+15
8.67874e+15
8.85706e+15
9.03335e+15
9.19155e+15
9.34501e+15
9.48035e+15
9.61836e+15
9.71479e+15
9.82095e+15
9.90631e+15
9.98632e+15
1.00428e+16
1.01066e+16
1.01375e+16
1.01657e+16
1.01801e+16
1.02035e+16
1.01887e+16
1.01741e+16
1.01269e+16
1.00809e+16
1.00316e+16
9.98018e+15
9.90351e+15
9.81138e+15
9.72368e+15
9.60577e+15
9.48973e+15
9.33433e+15
9.17107e+15
8.99316e+15
8.80705e+15
8.60717e+15
8.40005e+15
8.17084e+15
7.92678e+15
7.66841e+15
7.40272e+15
7.12307e+15
6.83204e+15
6.53774e+15
6.22067e+15
5.89317e+15
5.53888e+15
5.1863e+15
4.81329e+15
4.42422e+15
4.01863e+15
3.59761e+15
3.17522e+15
2.73751e+15
2.29177e+15
1.82295e+15
1.3392e+15
8.37122e+14
2.95501e+14
9.19956e+14
2.6324e+15
4.24634e+15
5.76295e+15
7.17332e+15
8.50459e+15
9.75448e+15
1.09537e+16
1.20996e+16
1.31642e+16
1.42031e+16
1.52238e+16
1.6223e+16
1.71707e+16
1.81169e+16
1.90239e+16
1.9875e+16
2.06931e+16
2.14731e+16
2.22257e+16
2.29343e+16
2.36169e+16
2.42325e+16
2.48425e+16
2.54339e+16
2.59642e+16
2.64679e+16
2.6933e+16
2.73736e+16
2.77495e+16
2.81166e+16
2.84319e+16
2.87437e+16
2.89761e+16
2.92042e+16
2.93915e+16
2.95499e+16
2.96561e+16
2.97377e+16
2.97865e+16
2.98181e+16
2.98011e+16
2.97339e+16
2.962e+16
2.94833e+16
2.93364e+16
2.9172e+16
2.89426e+16
2.86962e+16
2.8414e+16
2.80867e+16
2.77165e+16
2.72942e+16
2.68166e+16
2.63016e+16
2.57556e+16
2.51755e+16
2.45657e+16
2.39141e+16
2.31987e+16
2.24468e+16
2.16713e+16
2.08552e+16
2.00034e+16
1.91453e+16
1.82303e+16
1.7257e+16
1.62391e+16
1.51839e+16
1.41063e+16
1.29651e+16
1.17772e+16
1.05472e+16
9.30483e+15
8.02176e+15
6.6962e+15
5.33162e+15
3.90956e+15
2.43316e+15
8.48474e+14
1.50305e+15
4.32268e+15
6.97368e+15
9.46881e+15
1.17833e+16
1.39673e+16
1.60256e+16
1.79851e+16
1.98537e+16
2.16037e+16
2.32982e+16
2.49569e+16
2.65826e+16
2.81486e+16
2.96896e+16
3.11526e+16
3.25364e+16
3.38694e+16
3.51543e+16
3.63795e+16
3.75306e+16
3.8638e+16
3.96476e+16
4.06431e+16
4.15907e+16
4.24545e+16
4.3263e+16
4.40296e+16
4.47051e+16
4.5319e+16
4.59067e+16
4.64369e+16
4.69021e+16
4.73082e+16
4.76685e+16
4.79758e+16
4.82183e+16
4.83858e+16
4.84839e+16
4.85654e+16
4.85929e+16
4.85668e+16
4.84602e+16
4.82934e+16
4.80748e+16
4.78245e+16
4.75369e+16
4.7176e+16
4.6761e+16
4.62958e+16
4.57609e+16
4.51482e+16
4.44711e+16
4.3709e+16
4.2882e+16
4.19998e+16
4.10515e+16
4.00669e+16
3.90025e+16
3.7852e+16
3.66283e+16
3.53758e+16
3.4051e+16
3.2665e+16
3.12565e+16
2.97697e+16
2.81893e+16
2.6539e+16
2.48092e+16
2.30438e+16
2.11887e+16
1.92578e+16
1.72494e+16
1.52206e+16
1.31085e+16
1.09396e+16
8.71211e+15
6.38119e+15
3.95229e+15
1.37572e+15
2.07107e+15
5.97651e+15
9.65167e+15
1.30969e+16
1.63073e+16
1.93226e+16
2.21624e+16
2.48519e+16
2.74208e+16
2.98409e+16
3.21642e+16
3.44311e+16
3.66389e+16
3.88143e+16
4.08962e+16
4.28885e+16
4.47911e+16
4.66142e+16
4.83734e+16
5.00363e+16
5.16279e+16
5.31179e+16
5.45161e+16
5.5874e+16
5.71423e+16
5.83137e+16
5.93713e+16
6.039e+16
6.13166e+16
6.21568e+16
6.29475e+16
6.36401e+16
6.42572e+16
6.48148e+16
6.52872e+16
6.56903e+16
6.60103e+16
6.62335e+16
6.63658e+16
6.64523e+16
6.6474e+16
6.64135e+16
6.62492e+16
6.60048e+16
6.57192e+16
6.53686e+16
6.49536e+16
6.44658e+16
6.38875e+16
6.32225e+16
6.24769e+16
6.16403e+16
6.07218e+16
5.97038e+16
5.85909e+16
5.73942e+16
5.61119e+16
5.47418e+16
5.32897e+16
5.17504e+16
5.00982e+16
4.83751e+16
4.65758e+16
4.47114e+16
4.27869e+16
4.07485e+16
3.86102e+16
3.63708e+16
3.40012e+16
3.15669e+16
2.90285e+16
2.639e+16
2.36604e+16
2.08586e+16
1.79723e+16
1.49994e+16
1.19415e+16
8.74789e+15
5.40054e+15
1.87593e+15
2.63058e+15
7.61309e+15
1.22798e+16
1.66614e+16
2.07429e+16
2.45796e+16
2.81785e+16
3.15806e+16
3.48075e+16
3.78776e+16
4.08191e+16
4.36569e+16
4.64383e+16
4.91722e+16
5.17882e+16
5.42787e+16
5.66714e+16
5.89563e+16
6.1136e+16
6.32277e+16
6.51984e+16
6.70642e+16
6.88273e+16
7.05079e+16
7.20802e+16
7.3523e+16
7.48402e+16
7.60713e+16
7.72025e+16
7.8241e+16
7.91675e+16
8.00114e+16
8.07724e+16
8.14203e+16
8.19968e+16
8.24662e+16
8.28423e+16
8.31185e+16
8.32683e+16
8.33395e+16
8.33159e+16
8.32047e+16
8.29809e+16
8.26609e+16
8.22703e+16
8.18319e+16
8.12822e+16
8.06257e+16
7.98878e+16
7.90202e+16
7.80682e+16
7.69984e+16
7.58653e+16
7.46271e+16
7.3239e+16
7.17476e+16
7.01461e+16
6.84276e+16
6.66229e+16
6.47245e+16
6.26862e+16
6.05273e+16
5.83011e+16
5.59848e+16
5.35853e+16
5.10621e+16
4.84112e+16
4.56171e+16
4.26552e+16
3.96093e+16
3.64238e+16
3.31232e+16
2.97246e+16
2.61957e+16
2.25728e+16
1.8858e+16
1.5013e+16
1.10046e+16
6.78599e+15
2.35284e+15
3.1835e+15
9.21489e+15
1.48833e+16
2.0189e+16
2.51173e+16
2.97471e+16
3.4089e+16
3.81861e+16
4.20558e+16
4.57417e+16
4.92673e+16
5.26755e+16
5.60092e+16
5.92575e+16
6.2363e+16
6.53212e+16
6.81829e+16
7.08994e+16
7.34944e+16
7.59849e+16
7.83165e+16
8.05079e+16
8.25765e+16
8.45461e+16
8.63798e+16
8.80736e+16
8.96117e+16
9.10292e+16
9.23303e+16
9.35157e+16
9.45641e+16
9.55339e+16
9.63942e+16
9.71267e+16
9.77524e+16
9.82574e+16
9.86476e+16
9.89117e+16
9.90426e+16
9.9047e+16
9.89804e+16
9.87936e+16
9.84868e+16
9.80946e+16
9.7601e+16
9.70201e+16
9.63101e+16
9.54873e+16
9.45557e+16
9.35023e+16
9.23464e+16
9.10738e+16
8.96956e+16
8.82058e+16
8.65854e+16
8.48435e+16
8.29555e+16
8.09293e+16
7.88104e+16
7.65939e+16
7.42185e+16
7.16977e+16
6.90853e+16
6.63538e+16
6.35349e+16
6.0579e+16
5.7471e+16
5.416e+16
5.06895e+16
4.70954e+16
4.33314e+16
3.94292e+16
3.53976e+16
3.12201e+16
2.69192e+16
2.25061e+16
1.79221e+16
1.31464e+16
8.11048e+15
2.81284e+15
3.72606e+15
1.07938e+16
1.7454e+16
2.36735e+16
2.94464e+16
3.4854e+16
3.99177e+16
4.46808e+16
4.91799e+16
5.34677e+16
5.7554e+16
6.15106e+16
6.53645e+16
6.90827e+16
7.26502e+16
7.60827e+16
7.93585e+16
8.2504e+16
8.54886e+16
8.83043e+16
9.09439e+16
9.34423e+16
9.57766e+16
9.798e+16
1.00047e+17
1.01957e+17
1.03691e+17
1.05239e+17
1.06653e+17
1.07963e+17
1.09111e+17
1.10136e+17
1.11028e+17
1.1179e+17
1.12431e+17
1.12927e+17
1.13294e+17
1.13486e+17
1.13543e+17
1.13502e+17
1.13344e+17
1.13061e+17
1.12653e+17
1.12134e+17
1.11483e+17
1.10744e+17
1.09886e+17
1.08883e+17
1.07749e+17
1.06501e+17
1.05139e+17
1.03672e+17
1.02084e+17
1.00331e+17
9.84903e+16
9.65368e+16
9.43953e+16
9.21004e+16
8.96929e+16
8.71954e+16
8.45303e+16
8.17106e+16
7.87571e+16
7.56909e+16
7.2512e+16
6.91737e+16
6.56863e+16
6.19548e+16
5.80328e+16
5.39634e+16
4.9689e+16
4.5261e+16
4.06684e+16
3.59048e+16
3.09828e+16
2.59195e+16
2.06473e+16
1.51687e+16
9.37472e+15
3.25298e+15
4.26554e+15
1.2367e+16
2.00059e+16
2.71307e+16
3.37483e+16
3.99247e+16
4.5694e+16
5.10931e+16
5.62138e+16
6.10712e+16
6.57032e+16
7.01781e+16
7.45319e+16
7.86997e+16
8.27172e+16
8.65767e+16
9.02645e+16
9.37721e+16
9.70706e+16
1.00191e+17
1.03108e+17
1.05862e+17
1.08449e+17
1.10855e+17
1.13085e+17
1.15134e+17
1.16997e+17
1.18649e+17
1.20193e+17
1.21544e+17
1.2271e+17
1.23745e+17
1.24632e+17
1.2537e+17
1.25962e+17
1.26388e+17
1.26683e+17
1.26806e+17
1.26778e+17
1.26614e+17
1.26317e+17
1.25884e+17
1.25335e+17
1.2467e+17
1.23833e+17
1.22904e+17
1.21878e+17
1.20688e+17
1.19372e+17
1.17918e+17
1.16371e+17
1.14691e+17
1.1286e+17
1.10927e+17
1.08871e+17
1.06689e+17
1.04343e+17
1.01855e+17
9.92054e+16
9.64243e+16
9.35125e+16
9.04565e+16
8.72539e+16
8.39066e+16
8.04399e+16
7.67904e+16
7.29545e+16
6.88962e+16
6.46269e+16
6.01456e+16
5.54656e+16
5.05826e+16
4.55051e+16
4.02173e+16
3.47614e+16
2.90986e+16
2.32026e+16
1.70592e+16
1.05528e+16
3.65931e+15
4.79893e+15
1.39182e+16
2.25335e+16
3.05611e+16
3.80225e+16
4.49367e+16
5.14072e+16
5.74502e+16
6.31466e+16
6.85653e+16
7.37378e+16
7.86796e+16
8.35062e+16
8.81516e+16
9.25809e+16
9.67874e+16
1.00854e+17
1.04711e+17
1.08291e+17
1.1167e+17
1.14835e+17
1.17786e+17
1.20549e+17
1.23131e+17
1.2547e+17
1.27614e+17
1.29548e+17
1.31259e+17
1.32812e+17
1.34175e+17
1.35354e+17
1.36354e+17
1.37192e+17
1.3783e+17
1.3831e+17
1.38639e+17
1.38812e+17
1.38811e+17
1.38646e+17
1.38321e+17
1.37852e+17
1.37245e+17
1.365e+17
1.35638e+17
1.3464e+17
1.33513e+17
1.3228e+17
1.30906e+17
1.29415e+17
1.27773e+17
1.26004e+17
1.24114e+17
1.22107e+17
1.19989e+17
1.1773e+17
1.15346e+17
1.12808e+17
1.10122e+17
1.07287e+17
1.04323e+17
1.012e+17
9.79714e+16
9.45722e+16
9.10094e+16
8.72822e+16
8.33971e+16
7.93026e+16
7.49598e+16
7.04068e+16
6.56268e+16
6.06328e+16
5.53828e+16
4.98744e+16
4.41521e+16
3.8221e+16
3.20434e+16
2.5578e+16
1.8811e+16
1.16382e+16
4.03888e+15
5.33478e+15
1.54548e+16
2.50271e+16
3.39557e+16
4.22451e+16
4.99174e+16
5.70633e+16
6.37213e+16
7.00076e+16
7.59715e+16
8.16558e+16
8.70592e+16
9.22905e+16
9.73713e+16
1.02196e+17
1.06783e+17
1.11158e+17
1.1528e+17
1.19135e+17
1.22744e+17
1.26105e+17
1.29205e+17
1.32104e+17
1.34783e+17
1.37211e+17
1.39399e+17
1.41334e+17
1.43056e+17
1.44575e+17
1.45878e+17
1.46988e+17
1.47895e+17
1.48612e+17
1.4913e+17
1.4948e+17
1.49638e+17
1.49644e+17
1.49462e+17
1.49125e+17
1.48643e+17
1.47993e+17
1.47183e+17
1.46247e+17
1.45173e+17
1.43981e+17
1.42656e+17
1.41221e+17
1.39649e+17
1.37955e+17
1.36124e+17
1.3417e+17
1.32092e+17
1.29902e+17
1.27591e+17
1.25145e+17
1.22588e+17
1.19857e+17
1.17016e+17
1.14061e+17
1.10941e+17
1.07663e+17
1.04243e+17
1.00694e+17
9.69905e+16
9.31243e+16
8.90623e+16
8.47463e+16
8.02024e+16
7.54176e+16
7.04263e+16
6.51682e+16
5.96162e+16
5.37685e+16
4.77003e+16
4.13619e+16
3.47355e+16
2.77617e+16
2.04286e+16
1.2657e+16
4.38777e+15
5.87509e+15
1.69966e+16
2.75114e+16
3.73248e+16
4.64208e+16
5.48548e+16
6.26715e+16
6.99369e+16
7.67918e+16
8.3279e+16
8.94592e+16
9.52902e+16
1.00911e+17
1.06376e+17
1.11571e+17
1.16487e+17
1.2114e+17
1.25501e+17
1.29586e+17
1.33389e+17
1.36886e+17
1.40105e+17
1.43047e+17
1.45745e+17
1.48213e+17
1.50394e+17
1.52302e+17
1.53955e+17
1.554e+17
1.56589e+17
1.57568e+17
1.58335e+17
1.58907e+17
1.5928e+17
1.59457e+17
1.59436e+17
1.59246e+17
1.58887e+17
1.58353e+17
1.57686e+17
1.56813e+17
1.55801e+17
1.54662e+17
1.53372e+17
1.51971e+17
1.50445e+17
1.48823e+17
1.47052e+17
1.45156e+17
1.43142e+17
1.41001e+17
1.38731e+17
1.36365e+17
1.33888e+17
1.31289e+17
1.28554e+17
1.25678e+17
1.22733e+17
1.19646e+17
1.16423e+17
1.1304e+17
1.09488e+17
1.05828e+17
1.01993e+17
9.7997e+16
9.38053e+16
8.9344e+16
8.46528e+16
7.97483e+16
7.45673e+16
6.91184e+16
6.33506e+16
5.72591e+16
5.08918e+16
4.42124e+16
3.71844e+16
2.97593e+16
2.19305e+16
1.35962e+16
4.71561e+15
6.4169e+15
1.85409e+16
2.99859e+16
4.06866e+16
5.06013e+16
5.97612e+16
6.82382e+16
7.60989e+16
8.34709e+16
9.04678e+16
9.71041e+16
1.03386e+17
1.09391e+17
1.15199e+17
1.20719e+17
1.25941e+17
1.30834e+17
1.35386e+17
1.39631e+17
1.43552e+17
1.47148e+17
1.5044e+17
1.53393e+17
1.56111e+17
1.58528e+17
1.60625e+17
1.62443e+17
1.63985e+17
1.6529e+17
1.66374e+17
1.67206e+17
1.67811e+17
1.682e+17
1.68356e+17
1.68322e+17
1.68119e+17
1.67733e+17
1.6714e+17
1.66389e+17
1.65512e+17
1.6446e+17
1.63262e+17
1.61904e+17
1.60422e+17
1.58826e+17
1.57122e+17
1.55283e+17
1.53319e+17
1.51249e+17
1.49047e+17
1.46733e+17
1.44299e+17
1.41768e+17
1.39142e+17
1.36387e+17
1.33509e+17
1.30532e+17
1.27432e+17
1.24232e+17
1.20926e+17
1.17461e+17
1.13826e+17
1.10053e+17
1.06123e+17
1.02017e+17
9.77167e+16
9.3192e+16
8.84137e+16
8.34078e+16
7.81172e+16
7.25253e+16
6.66207e+16
6.03326e+16
5.37187e+16
4.67555e+16
3.93918e+16
3.15994e+16
2.33111e+16
1.44672e+16
5.0238e+15
6.94248e+15
2.00797e+16
3.24651e+16
4.40324e+16
5.47605e+16
6.46511e+16
7.37678e+16
8.22297e+16
9.00972e+16
9.75773e+16
1.04658e+17
1.11368e+17
1.17764e+17
1.23868e+17
1.29645e+17
1.35109e+17
1.40178e+17
1.44884e+17
1.49248e+17
1.53251e+17
1.56912e+17
1.60228e+17
1.63167e+17
1.65826e+17
1.68154e+17
1.70122e+17
1.71802e+17
1.73204e+17
1.74356e+17
1.75258e+17
1.75898e+17
1.76301e+17
1.76499e+17
1.76481e+17
1.76229e+17
1.75822e+17
1.75206e+17
1.74423e+17
1.73495e+17
1.72406e+17
1.7117e+17
1.69766e+17
1.68251e+17
1.66592e+17
1.6482e+17
1.62916e+17
1.60901e+17
1.58768e+17
1.56509e+17
1.54134e+17
1.51647e+17
1.49048e+17
1.46355e+17
1.43556e+17
1.40666e+17
1.37669e+17
1.34566e+17
1.31352e+17
1.28031e+17
1.24611e+17
1.21065e+17
1.17373e+17
1.13498e+17
1.09503e+17
1.05317e+17
1.00961e+17
9.63876e+16
9.15679e+16
8.65204e+16
8.11355e+16
7.54469e+16
6.94368e+16
6.3021e+16
5.62108e+16
4.90286e+16
4.13798e+16
3.32521e+16
2.4572e+16
1.52759e+16
5.30618e+15
7.46247e+15
2.16117e+16
3.49319e+16
4.73733e+16
5.89104e+16
6.95183e+16
7.92575e+16
8.82677e+16
9.66477e+16
1.04612e+17
1.1212e+17
1.19226e+17
1.2598e+17
1.32354e+17
1.38346e+17
1.43991e+17
1.49243e+17
1.54048e+17
1.58501e+17
1.62527e+17
1.6618e+17
1.6941e+17
1.72304e+17
1.74856e+17
1.7706e+17
1.789e+17
1.80403e+17
1.81639e+17
1.82589e+17
1.8331e+17
1.83753e+17
1.83982e+17
1.8398e+17
1.83746e+17
1.83305e+17
1.8272e+17
1.81929e+17
1.80972e+17
1.79867e+17
1.7859e+17
1.77177e+17
1.75599e+17
1.7389e+17
1.7205e+17
1.70096e+17
1.68033e+17
1.65866e+17
1.63573e+17
1.6116e+17
1.58615e+17
1.55967e+17
1.53212e+17
1.50345e+17
1.47408e+17
1.44366e+17
1.41228e+17
1.38003e+17
1.34687e+17
1.31237e+17
1.27708e+17
1.24065e+17
1.20272e+17
1.16333e+17
1.12261e+17
1.08026e+17
1.03631e+17
9.9046e+16
9.42226e+16
8.91224e+16
8.36936e+16
7.79436e+16
7.18698e+16
6.53685e+16
5.84321e+16
5.10519e+16
4.31954e+16
3.47459e+16
2.57203e+16
1.60115e+16
5.57289e+15
7.96637e+15
2.31154e+16
3.73767e+16
5.0707e+16
6.30256e+16
7.43511e+16
8.47306e+16
9.42784e+16
1.03155e+17
1.11552e+17
1.19446e+17
1.26941e+17
1.34009e+17
1.40629e+17
1.46822e+17
1.52609e+17
1.57952e+17
1.62822e+17
1.67282e+17
1.71308e+17
1.74897e+17
1.78037e+17
1.80824e+17
1.83234e+17
1.85274e+17
1.86928e+17
1.8829e+17
1.89351e+17
1.90119e+17
1.90647e+17
1.90922e+17
1.90946e+17
1.90761e+17
1.90357e+17
1.89757e+17
1.88977e+17
1.8804e+17
1.86925e+17
1.85674e+17
1.84234e+17
1.82667e+17
1.80959e+17
1.7911e+17
1.77115e+17
1.75025e+17
1.72796e+17
1.70462e+17
1.68017e+17
1.65456e+17
1.62759e+17
1.59948e+17
1.57026e+17
1.54009e+17
1.50909e+17
1.47711e+17
1.44411e+17
1.41042e+17
1.37605e+17
1.3404e+17
1.30392e+17
1.26637e+17
1.22747e+17
1.18726e+17
1.14573e+17
1.10306e+17
1.05872e+17
1.01256e+17
9.64053e+16
9.12795e+16
8.58273e+16
8.00874e+16
7.39554e+16
6.73918e+16
6.03882e+16
5.28789e+16
4.48291e+16
3.61224e+16
2.67846e+16
1.66987e+16
5.81966e+15
8.47934e+15
2.46178e+16
3.98117e+16
5.39971e+16
6.70931e+16
7.91369e+16
9.01522e+16
1.00251e+17
1.09596e+17
1.18399e+17
1.26692e+17
1.34505e+17
1.41827e+17
1.48679e+17
1.55048e+17
1.60944e+17
1.66318e+17
1.71207e+17
1.75642e+17
1.79591e+17
1.83092e+17
1.86124e+17
1.88777e+17
1.91025e+17
1.92869e+17
1.9435e+17
1.95526e+17
1.96359e+17
1.96987e+17
1.97335e+17
1.97434e+17
1.97319e+17
1.96974e+17
1.96447e+17
1.95701e+17
1.94805e+17
1.93729e+17
1.92477e+17
1.91108e+17
1.89556e+17
1.87879e+17
1.86075e+17
1.84106e+17
1.82005e+17
1.79781e+17
1.77408e+17
1.74913e+17
1.72309e+17
1.69609e+17
1.66758e+17
1.63786e+17
1.6072e+17
1.57518e+17
1.54233e+17
1.50877e+17
1.47436e+17
1.43907e+17
1.40336e+17
1.3662e+17
1.32826e+17
1.28952e+17
1.2497e+17
1.20857e+17
1.16593e+17
1.12276e+17
1.07781e+17
1.0311e+17
9.82233e+16
9.30779e+16
8.76446e+16
8.18744e+16
7.57278e+16
6.91524e+16
6.2077e+16
5.44625e+16
4.62691e+16
3.73531e+16
2.77419e+16
1.73195e+16
6.04037e+15
8.98848e+15
2.61173e+16
4.22461e+16
5.7289e+16
7.11464e+16
8.38688e+16
9.55146e+16
1.0616e+17
1.15985e+17
1.25188e+17
1.33836e+17
1.41933e+17
1.49472e+17
1.56517e+17
1.63016e+17
1.6896e+17
1.7435e+17
1.79213e+17
1.83586e+17
1.87413e+17
1.90773e+17
1.93675e+17
1.96155e+17
1.98216e+17
1.99877e+17
2.01189e+17
2.02197e+17
2.02885e+17
2.03355e+17
2.03554e+17
2.03505e+17
2.03258e+17
2.02795e+17
2.02162e+17
2.01345e+17
2.00354e+17
1.99191e+17
1.97866e+17
1.96415e+17
1.94788e+17
1.93013e+17
1.91094e+17
1.89039e+17
1.86832e+17
1.84483e+17
1.82004e+17
1.79377e+17
1.76623e+17
1.7377e+17
1.70773e+17
1.6766e+17
1.64422e+17
1.61067e+17
1.57606e+17
1.54058e+17
1.50439e+17
1.46729e+17
1.42968e+17
1.39106e+17
1.35155e+17
1.3112e+17
1.26992e+17
1.22771e+17
1.18417e+17
1.13988e+17
1.09444e+17
1.04707e+17
9.97875e+16
9.46229e+16
8.91664e+16
8.34154e+16
7.72439e+16
7.06274e+16
6.35314e+16
5.58436e+16
4.75107e+16
3.84498e+16
2.85933e+16
1.78853e+16
6.24909e+15
9.5186e+15
2.76197e+16
4.46625e+16
6.05705e+16
7.52096e+16
8.86034e+16
1.00824e+17
1.12003e+17
1.22278e+17
1.31865e+17
1.40825e+17
1.49176e+17
1.56936e+17
1.64135e+17
1.70705e+17
1.76658e+17
1.82035e+17
1.86819e+17
1.91097e+17
1.94788e+17
1.97968e+17
2.00701e+17
2.02992e+17
2.04884e+17
2.06379e+17
2.07539e+17
2.08415e+17
2.08977e+17
2.09305e+17
2.09413e+17
2.09258e+17
2.0893e+17
2.08421e+17
2.07706e+17
2.06843e+17
2.05818e+17
2.04616e+17
2.03246e+17
2.01716e+17
2.00039e+17
1.98205e+17
1.96225e+17
1.94069e+17
1.91764e+17
1.89339e+17
1.86747e+17
1.84002e+17
1.81122e+17
1.78111e+17
1.74934e+17
1.71653e+17
1.68251e+17
1.6473e+17
1.61097e+17
1.57373e+17
1.53551e+17
1.49637e+17
1.45649e+17
1.41602e+17
1.37457e+17
1.33255e+17
1.28971e+17
1.246e+17
1.20156e+17
1.15601e+17
1.10946e+17
1.06124e+17
1.01142e+17
9.59576e+16
9.04944e+16
8.47308e+16
7.85196e+16
7.18784e+16
6.47611e+16
5.70347e+16
4.86092e+16
3.94111e+16
2.93625e+16
1.83961e+16
6.44041e+15
1.00415e+16
2.91003e+16
4.70714e+16
6.38268e+16
7.92428e+16
9.33038e+16
1.06079e+17
1.17743e+17
1.28463e+17
1.38433e+17
1.47695e+17
1.56251e+17
1.64206e+17
1.71488e+17
1.7808e+17
1.84021e+17
1.89344e+17
1.94028e+17
1.98153e+17
2.01701e+17
2.04722e+17
2.07285e+17
2.09403e+17
2.11109e+17
2.12477e+17
2.13539e+17
2.14299e+17
2.14791e+17
2.15026e+17
2.15071e+17
2.14882e+17
2.14515e+17
2.13964e+17
2.13238e+17
2.12371e+17
2.11338e+17
2.10145e+17
2.08752e+17
2.07201e+17
2.05486e+17
2.03604e+17
2.01538e+17
1.99322e+17
1.96936e+17
1.94419e+17
1.91721e+17
1.88862e+17
1.85844e+17
1.82684e+17
1.7935e+17
1.75909e+17
1.72326e+17
1.68638e+17
1.64807e+17
1.60867e+17
1.56822e+17
1.52677e+17
1.48462e+17
1.44199e+17
1.39868e+17
1.35471e+17
1.30971e+17
1.26456e+17
1.21856e+17
1.17141e+17
1.12338e+17
1.07434e+17
1.0236e+17
9.71349e+16
9.16522e+16
8.5831e+16
7.95981e+16
7.29666e+16
6.58258e+16
5.80531e+16
4.95544e+16
4.02544e+16
3.00628e+16
1.88681e+16
6.62053e+15
1.05599e+16
3.05918e+16
4.94683e+16
6.70602e+16
8.32067e+16
9.79292e+16
1.11256e+17
1.23404e+17
1.34576e+17
1.44908e+17
1.54406e+17
1.63156e+17
1.71257e+17
1.78604e+17
1.85197e+17
1.91081e+17
1.96302e+17
2.00863e+17
2.04816e+17
2.08203e+17
2.11076e+17
2.13455e+17
2.15431e+17
2.17029e+17
2.18305e+17
2.19266e+17
2.1996e+17
2.20404e+17
2.20624e+17
2.20654e+17
2.20439e+17
2.20087e+17
2.19547e+17
2.18849e+17
2.18013e+17
2.16994e+17
2.15804e+17
2.1442e+17
2.12876e+17
2.11146e+17
2.09238e+17
2.07159e+17
2.04885e+17
2.02438e+17
1.99824e+17
1.97026e+17
1.94071e+17
1.90901e+17
1.87573e+17
1.84086e+17
1.80464e+17
1.76705e+17
1.72786e+17
1.68736e+17
1.64582e+17
1.60308e+17
1.55946e+17
1.51502e+17
1.46998e+17
1.4242e+17
1.37763e+17
1.33065e+17
1.28353e+17
1.23578e+17
1.18684e+17
1.13706e+17
1.08674e+17
1.03518e+17
9.81662e+16
9.26274e+16
8.67783e+16
8.05317e+16
7.39121e+16
6.67679e+16
5.8948e+16
5.04007e+16
4.10094e+16
3.06958e+16
1.93039e+16
6.78735e+15
1.10832e+16
3.20926e+16
5.18517e+16
7.02572e+16
8.71297e+16
1.02524e+17
1.1642e+17
1.29032e+17
1.40629e+17
1.51234e+17
1.60945e+17
1.69898e+17
1.78073e+17
1.85466e+17
1.92028e+17
1.97823e+17
2.02924e+17
2.07325e+17
2.11104e+17
2.14327e+17
2.17027e+17
2.1929e+17
2.21169e+17
2.22716e+17
2.23895e+17
2.24786e+17
2.25455e+17
2.25908e+17
2.26152e+17
2.2621e+17
2.26064e+17
2.25773e+17
2.25303e+17
2.24681e+17
2.23875e+17
2.22898e+17
2.21739e+17
2.2039e+17
2.18845e+17
2.17139e+17
2.15228e+17
2.13132e+17
2.10841e+17
2.08319e+17
2.05638e+17
2.0274e+17
1.99661e+17
1.96359e+17
1.92874e+17
1.89216e+17
1.85408e+17
1.81436e+17
1.77302e+17
1.7301e+17
1.68603e+17
1.64101e+17
1.59474e+17
1.54783e+17
1.50002e+17
1.45171e+17
1.40251e+17
1.35302e+17
1.30335e+17
1.25353e+17
1.20261e+17
1.1511e+17
1.09915e+17
1.04609e+17
9.91381e+16
9.35213e+16
8.76213e+16
8.13524e+16
7.47102e+16
6.75499e+16
5.97401e+16
5.11554e+16
4.17145e+16
3.12655e+16
1.96889e+16
6.93649e+15
1.15856e+16
3.35751e+16
5.42512e+16
7.34372e+16
9.10576e+16
1.07087e+17
1.2152e+17
1.34606e+17
1.46536e+17
1.57421e+17
1.67348e+17
1.76446e+17
1.84686e+17
1.92048e+17
1.98553e+17
2.04251e+17
2.09211e+17
2.13453e+17
2.17078e+17
2.20142e+17
2.22709e+17
2.24874e+17
2.26673e+17
2.28172e+17
2.29326e+17
2.30227e+17
2.30932e+17
2.3144e+17
2.31763e+17
2.31916e+17
2.31876e+17
2.31673e+17
2.31288e+17
2.30747e+17
2.30043e+17
2.29141e+17
2.28036e+17
2.26728e+17
2.25243e+17
2.23549e+17
2.21654e+17
2.19555e+17
2.17219e+17
2.14651e+17
2.11863e+17
2.0886e+17
2.05655e+17
2.0224e+17
1.98626e+17
1.94806e+17
1.90794e+17
1.8658e+17
1.82209e+17
1.77671e+17
1.72997e+17
1.68218e+17
1.63321e+17
1.58351e+17
1.5328e+17
1.48161e+17
1.42979e+17
1.37744e+17
1.3249e+17
1.27232e+17
1.2191e+17
1.16544e+17
1.11153e+17
1.0568e+17
1.0009e+17
9.43691e+16
8.8408e+16
8.20867e+16
7.54256e+16
6.82298e+16
6.04304e+16
5.18247e+16
4.23273e+16
3.17781e+16
2.00505e+16
7.07738e+15
1.2101e+16
3.50519e+16
5.66072e+16
7.66155e+16
9.49855e+16
1.11614e+17
1.26565e+17
1.40074e+17
1.52314e+17
1.63471e+17
1.7359e+17
1.82792e+17
1.91057e+17
1.98363e+17
2.04793e+17
2.10376e+17
2.15171e+17
2.1927e+17
2.22734e+17
2.2567e+17
2.28165e+17
2.30275e+17
2.32046e+17
2.33522e+17
2.34732e+17
2.35713e+17
2.36483e+17
2.37099e+17
2.37552e+17
2.37829e+17
2.3792e+17
2.37849e+17
2.37624e+17
2.37197e+17
2.36574e+17
2.35768e+17
2.34744e+17
2.33525e+17
2.32075e+17
2.30414e+17
2.2853e+17
2.26421e+17
2.24061e+17
2.21454e+17
2.18582e+17
2.15501e+17
2.12169e+17
2.08635e+17
2.04871e+17
2.00872e+17
1.9664e+17
1.92188e+17
1.87566e+17
1.82776e+17
1.77824e+17
1.72724e+17
1.67515e+17
1.62237e+17
1.56861e+17
1.5142e+17
1.45926e+17
1.40385e+17
1.3482e+17
1.29287e+17
1.23678e+17
1.18061e+17
1.12435e+17
1.06784e+17
1.01035e+17
9.51852e+16
8.91199e+16
8.27687e+16
7.60709e+16
6.8856e+16
6.105e+16
5.24121e+16
4.28583e+16
3.22374e+16
2.03842e+16
7.20285e+15
1.26066e+16
3.65027e+16
5.89645e+16
7.98022e+16
9.88603e+16
1.16097e+17
1.31547e+17
1.45454e+17
1.58026e+17
1.69434e+17
1.79704e+17
1.88979e+17
1.97208e+17
2.04424e+17
2.10738e+17
2.16165e+17
2.20828e+17
2.24784e+17
2.28136e+17
2.30998e+17
2.33463e+17
2.35565e+17
2.37359e+17
2.38877e+17
2.40164e+17
2.41265e+17
2.42185e+17
2.42926e+17
2.43521e+17
2.43963e+17
2.44247e+17
2.4433e+17
2.44252e+17
2.43979e+17
2.43488e+17
2.42787e+17
2.41869e+17
2.40744e+17
2.39369e+17
2.37761e+17
2.35884e+17
2.33765e+17
2.31387e+17
2.28755e+17
2.25833e+17
2.22654e+17
2.1921e+17
2.15536e+17
2.11617e+17
2.07418e+17
2.02995e+17
1.98335e+17
1.93464e+17
1.88387e+17
1.83151e+17
1.77737e+17
1.7217e+17
1.66543e+17
1.60828e+17
1.55024e+17
1.49186e+17
1.43311e+17
1.37401e+17
1.31541e+17
1.25647e+17
1.19747e+17
1.13848e+17
1.07959e+17
1.02032e+17
9.60001e+16
8.98205e+16
8.34108e+16
7.66474e+16
6.94011e+16
6.15862e+16
5.29285e+16
4.33566e+16
3.26644e+16
2.06767e+16
7.29665e+15
1.31006e+16
3.7923e+16
6.12862e+16
8.29275e+16
1.02699e+17
1.20535e+17
1.3649e+17
1.50784e+17
1.63651e+17
1.75246e+17
1.85635e+17
1.94927e+17
2.03106e+17
2.10243e+17
2.16425e+17
2.21718e+17
2.26225e+17
2.30046e+17
2.33349e+17
2.36192e+17
2.38658e+17
2.40782e+17
2.42639e+17
2.44257e+17
2.45675e+17
2.46939e+17
2.48041e+17
2.48977e+17
2.49766e+17
2.50415e+17
2.50875e+17
2.51157e+17
2.51255e+17
2.51145e+17
2.50814e+17
2.50254e+17
2.49443e+17
2.48403e+17
2.47112e+17
2.45563e+17
2.43759e+17
2.41676e+17
2.39294e+17
2.36612e+17
2.33642e+17
2.30373e+17
2.26808e+17
2.22986e+17
2.18886e+17
2.14506e+17
2.09874e+17
2.04983e+17
1.99849e+17
1.94502e+17
1.88949e+17
1.83224e+17
1.77312e+17
1.713e+17
1.65189e+17
1.59003e+17
1.52781e+17
1.46548e+17
1.4026e+17
1.34018e+17
1.27794e+17
1.21598e+17
1.15408e+17
1.09242e+17
1.03084e+17
9.68722e+16
9.05495e+16
8.40216e+16
7.71494e+16
6.98862e+16
6.20286e+16
5.33697e+16
4.37864e+16
3.30338e+16
2.09377e+16
7.3969e+15
1.35874e+16
3.93353e+16
6.35761e+16
8.60417e+16
1.06509e+17
1.24924e+17
1.41358e+17
1.56028e+17
1.69147e+17
1.80918e+17
1.91414e+17
2.00683e+17
2.08788e+17
2.15811e+17
2.21849e+17
2.26995e+17
2.3138e+17
2.35135e+17
2.38426e+17
2.41251e+17
2.43737e+17
2.45965e+17
2.4794e+17
2.49723e+17
2.51347e+17
2.52821e+17
2.54149e+17
2.55314e+17
2.56336e+17
2.57204e+17
2.57898e+17
2.58384e+17
2.5865e+17
2.5871e+17
2.58554e+17
2.58138e+17
2.57491e+17
2.56566e+17
2.55366e+17
2.53886e+17
2.52103e+17
2.5003e+17
2.47643e+17
2.44956e+17
2.41926e+17
2.38587e+17
2.34951e+17
2.31003e+17
2.2674e+17
2.22162e+17
2.17292e+17
2.12152e+17
2.06744e+17
2.01105e+17
1.95251e+17
1.89176e+17
1.82919e+17
1.76515e+17
1.70014e+17
1.63414e+17
1.56772e+17
1.50127e+17
1.4345e+17
1.368e+17
1.30202e+17
1.23644e+17
1.17134e+17
1.10662e+17
1.04238e+17
9.77922e+16
9.12973e+16
8.46552e+16
7.7683e+16
7.03621e+16
6.24471e+16
5.37771e+16
4.4159e+16
3.33577e+16
2.11712e+16
7.497e+15
1.40721e+16
4.07343e+16
6.58581e+16
8.91358e+16
1.10284e+17
1.29247e+17
1.46144e+17
1.61169e+17
1.74545e+17
1.86429e+17
1.96973e+17
2.06215e+17
2.14231e+17
2.21141e+17
2.27038e+17
2.32051e+17
2.36362e+17
2.40088e+17
2.43372e+17
2.46267e+17
2.48859e+17
2.51212e+17
2.53379e+17
2.5538e+17
2.57245e+17
2.58942e+17
2.60523e+17
2.6194e+17
2.63207e+17
2.64317e+17
2.65232e+17
2.65937e+17
2.66425e+17
2.6667e+17
2.66671e+17
2.66445e+17
2.65927e+17
2.65138e+17
2.64026e+17
2.62621e+17
2.609e+17
2.58855e+17
2.5648e+17
2.53777e+17
2.50728e+17
2.47321e+17
2.43569e+17
2.39523e+17
2.35095e+17
2.30352e+17
2.25275e+17
2.19894e+17
2.14199e+17
2.08256e+17
2.02071e+17
1.95657e+17
1.8903e+17
1.82243e+17
1.75322e+17
1.683e+17
1.61222e+17
1.54118e+17
1.47004e+17
1.39905e+17
1.32885e+17
1.25932e+17
1.19036e+17
1.12222e+17
1.05489e+17
9.87996e+16
9.20927e+16
8.53117e+16
7.82317e+16
7.08024e+16
6.28423e+16
5.41452e+16
4.45064e+16
3.36492e+16
2.13724e+16
7.58209e+15
1.45524e+16
4.21363e+16
6.81245e+16
9.2194e+16
1.14013e+17
1.33525e+17
1.50872e+17
1.66224e+17
1.79818e+17
1.91822e+17
2.02385e+17
2.11552e+17
2.19475e+17
2.26231e+17
2.31995e+17
2.3694e+17
2.41205e+17
2.44956e+17
2.48286e+17
2.51296e+17
2.54027e+17
2.56567e+17
2.58975e+17
2.61239e+17
2.63359e+17
2.65357e+17
2.67206e+17
2.68891e+17
2.70434e+17
2.7179e+17
2.72959e+17
2.73894e+17
2.74575e+17
2.75019e+17
2.75211e+17
2.75149e+17
2.74769e+17
2.74088e+17
2.73106e+17
2.71803e+17
2.70133e+17
2.68119e+17
2.65776e+17
2.63073e+17
2.59974e+17
2.56519e+17
2.52695e+17
2.48548e+17
2.43997e+17
2.39071e+17
2.33799e+17
2.28184e+17
2.22237e+17
2.15986e+17
2.09454e+17
2.02682e+17
1.95668e+17
1.88462e+17
1.81108e+17
1.73637e+17
1.66084e+17
1.58509e+17
1.50942e+17
1.43388e+17
1.359e+17
1.28517e+17
1.21207e+17
1.14e+17
1.06928e+17
9.99496e+16
9.30014e+16
8.60003e+16
7.87855e+16
7.12405e+16
6.32155e+16
5.44561e+16
4.48026e+16
3.39086e+16
2.15678e+16
7.65417e+15
1.5034e+16
4.35423e+16
7.03936e+16
9.52278e+16
1.17711e+17
1.37777e+17
1.55552e+17
1.71207e+17
1.84973e+17
1.97083e+17
2.07616e+17
2.16696e+17
2.24499e+17
2.31128e+17
2.36796e+17
2.41693e+17
2.45956e+17
2.49757e+17
2.53205e+17
2.56359e+17
2.593e+17
2.62099e+17
2.64785e+17
2.67335e+17
2.69732e+17
2.72022e+17
2.74174e+17
2.76145e+17
2.77961e+17
2.79588e+17
2.80997e+17
2.82173e+17
2.83108e+17
2.83774e+17
2.84172e+17
2.84257e+17
2.84029e+17
2.83472e+17
2.82595e+17
2.81371e+17
2.79767e+17
2.77806e+17
2.75486e+17
2.72775e+17
2.6968e+17
2.66209e+17
2.62341e+17
2.58065e+17
2.53391e+17
2.48311e+17
2.42856e+17
2.3701e+17
2.30818e+17
2.24286e+17
2.17419e+17
2.10256e+17
2.02862e+17
1.95231e+17
1.87417e+17
1.79463e+17
1.71417e+17
1.63353e+17
1.55289e+17
1.47238e+17
1.39262e+17
1.31381e+17
1.23616e+17
1.16016e+17
1.08541e+17
1.01219e+17
9.39812e+16
8.67584e+16
7.93663e+16
7.16994e+16
6.35677e+16
5.47432e+16
4.50716e+16
3.41631e+16
2.17609e+16
7.73115e+15
1.55132e+16
4.49491e+16
7.26671e+16
9.82503e+16
1.21402e+17
1.42013e+17
1.60177e+17
1.76119e+17
1.90028e+17
2.02173e+17
2.12674e+17
2.21668e+17
2.29351e+17
2.35856e+17
2.41474e+17
2.46356e+17
2.5066e+17
2.54567e+17
2.58164e+17
2.61527e+17
2.64737e+17
2.67833e+17
2.70821e+17
2.73657e+17
2.76384e+17
2.79001e+17
2.8146e+17
2.83727e+17
2.85841e+17
2.87761e+17
2.89421e+17
2.90849e+17
2.92012e+17
2.92889e+17
2.93463e+17
2.93706e+17
2.93602e+17
2.93162e+17
2.92386e+17
2.91257e+17
2.89767e+17
2.87874e+17
2.85582e+17
2.82896e+17
2.79813e+17
2.76318e+17
2.72402e+17
2.68057e+17
2.63265e+17
2.58053e+17
2.5242e+17
2.46382e+17
2.39937e+17
2.33116e+17
2.25939e+17
2.18419e+17
2.10606e+17
2.02546e+17
1.94268e+17
1.85817e+17
1.77262e+17
1.68653e+17
1.60052e+17
1.51475e+17
1.42959e+17
1.34588e+17
1.26352e+17
1.18274e+17
1.10371e+17
1.02673e+17
9.50838e+16
8.75823e+16
7.99859e+16
7.21499e+16
6.38943e+16
5.50148e+16
4.5304e+16
3.43585e+16
2.19137e+16
7.79996e+15
1.59876e+16
4.63469e+16
7.49053e+16
1.01269e+17
1.25068e+17
1.46178e+17
1.6472e+17
1.80912e+17
1.94946e+17
2.07107e+17
2.17562e+17
2.26482e+17
2.34033e+17
2.40472e+17
2.4606e+17
2.50954e+17
2.55351e+17
2.59406e+17
2.63209e+17
2.66836e+17
2.70337e+17
2.73757e+17
2.77052e+17
2.80244e+17
2.8331e+17
2.86254e+17
2.89048e+17
2.91651e+17
2.94075e+17
2.96257e+17
2.98179e+17
2.99828e+17
3.01204e+17
3.02276e+17
3.02992e+17
3.03394e+17
3.03441e+17
3.03146e+17
3.02486e+17
3.01452e+17
3.00051e+17
2.98227e+17
2.96014e+17
2.93372e+17
2.90297e+17
2.86781e+17
2.82822e+17
2.78435e+17
2.73592e+17
2.68271e+17
2.62493e+17
2.56256e+17
2.49587e+17
2.42486e+17
2.34993e+17
2.27123e+17
2.18927e+17
2.10442e+17
2.01696e+17
1.92741e+17
1.83636e+17