/*--------------------------------*- C++ -*----------------------------------*\
  =========                 |
  \\      /  F ield         | OpenFOAM: The Open Source CFD Toolbox
   \\    /   O peration     | Website:  https://openfoam.org
    \\  /    A nd           | Version:  6
     \\/     M anipulation  |
\*---------------------------------------------------------------------------*/
FoamFile
{
    version     2.0;
    format      ascii;
    class       volScalarField;
    location    "600";
    object      dnp2;
}
// * * * * * * * * * * * * * * * * * * * * * * * * * * * * * * * * * * * * * //

dimensions      [0 -3 0 0 0 0 0];

internalField   nonuniform List<scalar> 
6400
(
8.36964e+14
2.2869e+15
3.61609e+15
4.85644e+15
6.02203e+15
7.12104e+15
8.15886e+15
9.19404e+15
1.01918e+16
1.11382e+16
1.20603e+16
1.30171e+16
1.39239e+16
1.48029e+16
1.57128e+16
1.65711e+16
1.74018e+16
1.8152e+16
1.89181e+16
1.96245e+16
2.03353e+16
2.09774e+16
2.15391e+16
2.21318e+16
2.27328e+16
2.32308e+16
2.37402e+16
2.41894e+16
2.46385e+16
2.50203e+16
2.54394e+16
2.56865e+16
2.60013e+16
2.62356e+16
2.64689e+16
2.66132e+16
2.68127e+16
2.68792e+16
2.6951e+16
2.69787e+16
2.70702e+16
2.7008e+16
2.69662e+16
2.6795e+16
2.66481e+16
2.65058e+16
2.63787e+16
2.6155e+16
2.58835e+16
2.56561e+16
2.53145e+16
2.50069e+16
2.45484e+16
2.40782e+16
2.3566e+16
2.30421e+16
2.24799e+16
2.19123e+16
2.12739e+16
2.05952e+16
1.98777e+16
1.91552e+16
1.83975e+16
1.76157e+16
1.68501e+16
1.60137e+16
1.51622e+16
1.42231e+16
1.3322e+16
1.23619e+16
1.13619e+16
1.03195e+16
9.23803e+15
8.17799e+15
7.07732e+15
5.96734e+15
4.78097e+15
3.55322e+15
2.26701e+15
8.25095e+14
2.35755e+15
6.55531e+15
1.04339e+16
1.40462e+16
1.73806e+16
2.05657e+16
2.35875e+16
2.65672e+16
2.94746e+16
3.21637e+16
3.48539e+16
3.75575e+16
4.025e+16
4.27871e+16
4.53908e+16
4.7892e+16
5.02124e+16
5.24557e+16
5.45977e+16
5.66875e+16
5.86446e+16
6.05627e+16
6.22304e+16
6.39444e+16
6.56477e+16
6.71297e+16
6.85531e+16
6.9868e+16
7.1138e+16
7.21574e+16
7.32139e+16
7.40784e+16
7.50039e+16
7.56073e+16
7.6261e+16
7.67829e+16
7.72412e+16
7.75085e+16
7.77149e+16
7.78325e+16
7.7938e+16
7.7884e+16
7.76564e+16
7.72707e+16
7.68382e+16
7.64202e+16
7.59992e+16
7.53297e+16
7.46536e+16
7.3885e+16
7.29814e+16
7.19558e+16
7.07751e+16
6.94139e+16
6.79551e+16
6.64328e+16
6.48261e+16
6.31668e+16
6.14038e+16
5.9433e+16
5.73715e+16
5.52893e+16
5.31063e+16
5.08421e+16
4.86437e+16
4.62831e+16
4.37558e+16
4.11252e+16
3.84202e+16
3.5711e+16
3.28137e+16
2.98022e+16
2.66927e+16
2.36117e+16
2.04331e+16
1.71461e+16
1.37635e+16
1.02016e+16
6.46765e+15
2.31159e+15
3.79355e+15
1.06323e+16
1.6921e+16
2.27976e+16
2.82003e+16
3.33662e+16
3.83092e+16
4.31236e+16
4.78128e+16
5.22129e+16
5.65598e+16
6.09061e+16
6.5244e+16
6.94407e+16
7.36496e+16
7.76297e+16
8.13718e+16
8.50005e+16
8.8532e+16
9.19142e+16
9.50714e+16
9.81612e+16
1.00892e+17
1.03687e+17
1.06384e+17
1.08799e+17
1.11051e+17
1.13245e+17
1.15119e+17
1.16792e+17
1.18466e+17
1.19967e+17
1.21273e+17
1.22398e+17
1.23416e+17
1.24291e+17
1.24976e+17
1.25409e+17
1.25589e+17
1.25816e+17
1.25891e+17
1.2583e+17
1.25481e+17
1.2495e+17
1.24282e+17
1.23574e+17
1.2281e+17
1.21801e+17
1.20657e+17
1.19396e+17
1.17939e+17
1.16234e+17
1.14375e+17
1.12243e+17
1.09933e+17
1.07502e+17
1.04881e+17
1.02232e+17
9.93579e+16
9.62316e+16
9.28904e+16
8.95616e+16
8.60421e+16
8.23789e+16
7.87722e+16
7.49665e+16
7.08974e+16
6.66766e+16
6.22529e+16
5.7832e+16
5.31695e+16
4.83254e+16
4.32862e+16
3.82992e+16
3.30824e+16
2.77481e+16
2.22835e+16
1.64878e+16
1.03735e+16
3.69966e+15
5.16305e+15
1.45487e+16
2.31925e+16
3.12145e+16
3.86619e+16
4.57343e+16
5.25074e+16
5.90574e+16
6.54663e+16
7.15505e+16
7.74771e+16
8.3377e+16
8.92019e+16
9.50668e+16
1.00683e+17
1.06065e+17
1.11211e+17
1.1616e+17
1.2099e+17
1.25548e+17
1.29951e+17
1.34058e+17
1.37879e+17
1.41702e+17
1.45275e+17
1.48564e+17
1.51442e+17
1.54329e+17
1.56928e+17
1.59253e+17
1.61513e+17
1.63452e+17
1.6518e+17
1.66771e+17
1.68107e+17
1.69262e+17
1.70183e+17
1.70791e+17
1.71071e+17
1.71307e+17
1.71382e+17
1.71227e+17
1.70706e+17
1.69934e+17
1.69125e+17
1.68169e+17
1.67048e+17
1.65735e+17
1.64163e+17
1.62332e+17
1.60305e+17
1.57996e+17
1.55499e+17
1.52707e+17
1.49635e+17
1.46359e+17
1.42854e+17
1.39117e+17
1.35191e+17
1.31068e+17
1.2659e+17
1.21976e+17
1.17206e+17
1.12328e+17
1.07397e+17
1.0216e+17
9.66936e+16
9.09997e+16
8.49346e+16
7.88102e+16
7.24419e+16
6.58463e+16
5.90578e+16
5.21541e+16
4.50737e+16
3.78008e+16
3.03362e+16
2.24512e+16
1.40502e+16
4.99635e+15
6.49625e+15
1.83933e+16
2.92529e+16
3.93684e+16
4.87676e+16
5.77279e+16
6.62666e+16
7.45171e+16
8.25044e+16
9.02318e+16
9.77439e+16
1.0508e+17
1.12411e+17
1.19769e+17
1.26822e+17
1.33519e+17
1.39999e+17
1.46204e+17
1.52142e+17
1.57914e+17
1.63338e+17
1.68496e+17
1.73374e+17
1.78106e+17
1.82554e+17
1.86609e+17
1.90249e+17
1.93709e+17
1.96887e+17
1.99835e+17
2.0242e+17
2.04818e+17
2.07027e+17
2.08849e+17
2.10555e+17
2.11918e+17
2.13037e+17
2.13872e+17
2.14246e+17
2.14459e+17
2.14409e+17
2.14133e+17
2.13477e+17
2.12542e+17
2.11436e+17
2.10341e+17
2.08874e+17
2.07073e+17
2.05122e+17
2.02711e+17
2.00144e+17
1.97175e+17
1.94145e+17
1.90839e+17
1.87016e+17
1.82948e+17
1.78574e+17
1.73853e+17
1.68963e+17
1.63898e+17
1.58396e+17
1.52555e+17
1.46656e+17
1.4058e+17
1.34397e+17
1.27916e+17
1.21142e+17
1.14008e+17
1.06391e+17
9.86983e+16
9.06654e+16
8.24023e+16
7.3984e+16
6.5257e+16
5.63754e+16
4.73407e+16
3.79763e+16
2.81271e+16
1.75662e+16
6.22882e+15
7.80243e+15
2.20914e+16
3.52171e+16
4.73829e+16
5.86454e+16
6.93967e+16
7.96674e+16
8.95853e+16
9.91355e+16
1.0841e+17
1.17409e+17
1.26239e+17
1.35044e+17
1.43761e+17
1.52111e+17
1.60052e+17
1.67843e+17
1.75238e+17
1.82342e+17
1.89265e+17
1.9571e+17
2.0178e+17
2.07525e+17
2.13106e+17
2.18313e+17
2.23137e+17
2.27456e+17
2.31458e+17
2.3516e+17
2.38582e+17
2.41526e+17
2.44375e+17
2.46934e+17
2.49083e+17
2.50986e+17
2.52515e+17
2.53748e+17
2.54583e+17
2.54997e+17
2.55009e+17
2.54944e+17
2.545e+17
2.53663e+17
2.52657e+17
2.51337e+17
2.4989e+17
2.48004e+17
2.45787e+17
2.43299e+17
2.4042e+17
2.3731e+17
2.33846e+17
2.3013e+17
2.26113e+17
2.21708e+17
2.17006e+17
2.1184e+17
2.0625e+17
2.00485e+17
1.94565e+17
1.88146e+17
1.81302e+17
1.74333e+17
1.67083e+17
1.59759e+17
1.52119e+17
1.44136e+17
1.35565e+17
1.26613e+17
1.17472e+17
1.07921e+17
9.8105e+16
8.80636e+16
7.77167e+16
6.71569e+16
5.64263e+16
4.52563e+16
3.35429e+16
2.09576e+16
7.43429e+15
9.06538e+15
2.5697e+16
4.10516e+16
5.52334e+16
6.83685e+16
8.08729e+16
9.28217e+16
1.04326e+17
1.15433e+17
1.26252e+17
1.36693e+17
1.46979e+17
1.57186e+17
1.67128e+17
1.76716e+17
1.86023e+17
1.94939e+17
2.03605e+17
2.11855e+17
2.19677e+17
2.26989e+17
2.33995e+17
2.4054e+17
2.4681e+17
2.52758e+17
2.58297e+17
2.63306e+17
2.67702e+17
2.71778e+17
2.7568e+17
2.79024e+17
2.82109e+17
2.84823e+17
2.87162e+17
2.89229e+17
2.90827e+17
2.92138e+17
2.92802e+17
2.93068e+17
2.93137e+17
2.92891e+17
2.92272e+17
2.9128e+17
2.90036e+17
2.8831e+17
2.86478e+17
2.84309e+17
2.81641e+17
2.78609e+17
2.75236e+17
2.71584e+17
2.67654e+17
2.63423e+17
2.58589e+17
2.53611e+17
2.48407e+17
2.42516e+17
2.36164e+17
2.29542e+17
2.22827e+17
2.15576e+17
2.07895e+17
1.99898e+17
1.91692e+17
1.83329e+17
1.7458e+17
1.65558e+17
1.55794e+17
1.4557e+17
1.35115e+17
1.24154e+17
1.12936e+17
1.01411e+17
8.95477e+16
7.73978e+16
6.50325e+16
5.21414e+16
3.8719e+16
2.42507e+16
8.60739e+15
1.03175e+16
2.92866e+16
4.68203e+16
6.29923e+16
7.80208e+16
9.22692e+16
1.05866e+17
1.1887e+17
1.31555e+17
1.4383e+17
1.55713e+17
1.67383e+17
1.78971e+17
1.90119e+17
2.00979e+17
2.11501e+17
2.21643e+17
2.31371e+17
2.40503e+17
2.49248e+17
2.57407e+17
2.65205e+17
2.72619e+17
2.79569e+17
2.86058e+17
2.92074e+17
2.97593e+17
3.0236e+17
3.07089e+17
3.11189e+17
3.14682e+17
3.17932e+17
3.20776e+17
3.23189e+17
3.25251e+17
3.26763e+17
3.28014e+17
3.28648e+17
3.28862e+17
3.28695e+17
3.28166e+17
3.27211e+17
3.25963e+17
3.24471e+17
3.22284e+17
3.19967e+17
3.17475e+17
3.14335e+17
3.10909e+17
3.06979e+17
3.02909e+17
2.98428e+17
2.93431e+17
2.88205e+17
2.82634e+17
2.76751e+17
2.70296e+17
2.63464e+17
2.56115e+17
2.48449e+17
2.40438e+17
2.32061e+17
2.23321e+17
2.14235e+17
2.04992e+17
1.95286e+17
1.85152e+17
1.74425e+17
1.63198e+17
1.51492e+17
1.39386e+17
1.26874e+17
1.14004e+17
1.00704e+17
8.71692e+16
7.32228e+16
5.87379e+16
4.36318e+16
2.73505e+16
9.69297e+15
1.15459e+16
3.27899e+16
5.25019e+16
7.06656e+16
8.76037e+16
1.03487e+17
1.18752e+17
1.33345e+17
1.47452e+17
1.61205e+17
1.74579e+17
1.87466e+17
2.0037e+17
2.12947e+17
2.24996e+17
2.36441e+17
2.47756e+17
2.58608e+17
2.68591e+17
2.78142e+17
2.87159e+17
2.95606e+17
3.0363e+17
3.11308e+17
3.18211e+17
3.24658e+17
3.30521e+17
3.35669e+17
3.40549e+17
3.4486e+17
3.48666e+17
3.51977e+17
3.54907e+17
3.57156e+17
3.59024e+17
3.60466e+17
3.61518e+17
3.61988e+17
3.61996e+17
3.6152e+17
3.60618e+17
3.59331e+17
3.57629e+17
3.55644e+17
3.53221e+17
3.50419e+17
3.47408e+17
3.4386e+17
3.40069e+17
3.3571e+17
3.31007e+17
3.25936e+17
3.20524e+17
3.14838e+17
3.08673e+17
3.02194e+17
2.95174e+17
2.87733e+17
2.79823e+17
2.71611e+17
2.62872e+17
2.53982e+17
2.44599e+17
2.34792e+17
2.24602e+17
2.14116e+17
2.03106e+17
1.91408e+17
1.79263e+17
1.66612e+17
1.53565e+17
1.39948e+17
1.2576e+17
1.11222e+17
9.63701e+16
8.10383e+16
6.50339e+16
4.82732e+16
3.02401e+16
1.07262e+16
1.27883e+16
3.62412e+16
5.80554e+16
7.82166e+16
9.70152e+16
1.14657e+17
1.31515e+17
1.47609e+17
1.63265e+17
1.78482e+17
1.93278e+17
2.07444e+17
2.21413e+17
2.35304e+17
2.48549e+17
2.61217e+17
2.73483e+17
2.85141e+17
2.96086e+17
3.06455e+17
3.16201e+17
3.25216e+17
3.33832e+17
3.41958e+17
3.49365e+17
3.56145e+17
3.6216e+17
3.6761e+17
3.72597e+17
3.76914e+17
3.80751e+17
3.84006e+17
3.86764e+17
3.8888e+17
3.90615e+17
3.91687e+17
3.92458e+17
3.92555e+17
3.92234e+17
3.91563e+17
3.90298e+17
3.88539e+17
3.86475e+17
3.83949e+17
3.81139e+17
3.77873e+17
3.74374e+17
3.7036e+17
3.66046e+17
3.61235e+17
3.56077e+17
3.50499e+17
3.44624e+17
3.38377e+17
3.31658e+17
3.24697e+17
3.17019e+17
3.09107e+17
3.00903e+17
2.92159e+17
2.82919e+17
2.7328e+17
2.63375e+17
2.53077e+17
2.42402e+17
2.31261e+17
2.19371e+17
2.06925e+17
1.93903e+17
1.80532e+17
1.6657e+17
1.51938e+17
1.36643e+17
1.21072e+17
1.05017e+17
8.84134e+16
7.09913e+16
5.26723e+16
3.30404e+16
1.16915e+16
1.40538e+16
3.97276e+16
6.35925e+16
8.56946e+16
1.0628e+17
1.25727e+17
1.442e+17
1.61814e+17
1.78973e+17
1.95613e+17
2.11829e+17
2.27184e+17
2.42242e+17
2.57289e+17
2.71713e+17
2.85463e+17
2.98665e+17
3.11135e+17
3.22956e+17
3.34114e+17
3.44421e+17
3.54048e+17
3.62929e+17
3.71271e+17
3.79116e+17
3.86102e+17
3.9232e+17
3.97783e+17
4.02836e+17
4.07029e+17
4.10711e+17
4.13775e+17
4.16339e+17
4.18298e+17
4.19715e+17
4.20497e+17
4.20828e+17
4.20641e+17
4.19883e+17
4.18909e+17
4.17052e+17
4.1487e+17
4.12354e+17
4.09272e+17
4.05958e+17
4.02197e+17
3.9828e+17
3.93765e+17
3.88899e+17
3.83645e+17
3.7799e+17
3.71862e+17
3.65505e+17
3.58801e+17
3.51698e+17
3.44145e+17
3.36035e+17
3.27908e+17
3.19254e+17
3.1022e+17
3.00659e+17
2.90502e+17
2.80204e+17
2.69378e+17
2.58168e+17
2.46487e+17
2.33963e+17
2.20871e+17
2.07383e+17
1.93217e+17
1.78511e+17
1.63081e+17
1.46939e+17
1.30364e+17
1.13225e+17
9.53849e+16
7.66309e+16
5.6911e+16
3.56947e+16
1.26314e+16
1.53299e+16
4.32384e+16
6.91111e+16
9.31835e+16
1.15636e+17
1.36759e+17
1.5684e+17
1.75973e+17
1.94444e+17
2.12517e+17
2.30019e+17
2.46761e+17
2.6298e+17
2.79087e+17
2.94579e+17
3.09439e+17
3.23507e+17
3.3669e+17
3.4919e+17
3.60891e+17
3.71753e+17
3.81916e+17
3.91024e+17
3.99801e+17
4.07737e+17
4.1468e+17
4.20914e+17
4.26325e+17
4.31154e+17
4.35423e+17
4.38905e+17
4.41741e+17
4.43987e+17
4.45432e+17
4.4635e+17
4.46838e+17
4.46768e+17
4.45956e+17
4.44691e+17
4.43177e+17
4.40971e+17
4.3838e+17
4.35237e+17
4.31702e+17
4.27868e+17
4.23725e+17
4.19137e+17
4.14114e+17
4.08821e+17
4.03032e+17
3.96933e+17
3.90374e+17
3.83562e+17
3.76493e+17
3.68933e+17
3.60951e+17
3.52701e+17
3.44018e+17
3.35039e+17
3.25815e+17
3.16018e+17
3.05617e+17
2.94849e+17
2.83658e+17
2.71968e+17
2.59763e+17
2.46952e+17
2.33427e+17
2.19444e+17
2.04767e+17
1.89407e+17
1.73412e+17
1.56489e+17
1.38992e+17
1.20868e+17
1.01929e+17
8.20643e+16
6.09541e+16
3.82476e+16
1.35502e+16
1.65393e+16
4.67402e+16
7.46789e+16
1.00645e+17
1.24963e+17
1.47823e+17
1.69459e+17
1.90198e+17
2.09947e+17
2.29394e+17
2.48202e+17
2.66284e+17
2.83807e+17
3.00851e+17
3.17184e+17
3.32963e+17
3.47713e+17
3.61577e+17
3.74708e+17
3.86931e+17
3.98334e+17
4.08903e+17
4.18296e+17
4.27192e+17
4.35167e+17
4.41957e+17
4.48042e+17
4.53322e+17
4.57962e+17
4.61905e+17
4.65e+17
4.67404e+17
4.69256e+17
4.70439e+17
4.70749e+17
4.70825e+17
4.70039e+17
4.68789e+17
4.67155e+17
4.64963e+17
4.6236e+17
4.59087e+17
4.55627e+17
4.51587e+17
4.47312e+17
4.42527e+17
4.3746e+17
4.32006e+17
4.26132e+17
4.1987e+17
4.13278e+17
4.06281e+17
3.99031e+17
3.91426e+17
3.83548e+17
3.75303e+17
3.66735e+17
3.57786e+17
3.48457e+17
3.38908e+17
3.28921e+17
3.18458e+17
3.07287e+17
2.95902e+17
2.83873e+17
2.71419e+17
2.58352e+17
2.44586e+17
2.30371e+17
2.15178e+17
1.99311e+17
1.82793e+17
1.65301e+17
1.46986e+17
1.28043e+17
1.08094e+17
8.71254e+16
6.47896e+16
4.0715e+16
1.44176e+16
1.77297e+16
5.02289e+16
8.02212e+16
1.08133e+17
1.34325e+17
1.58894e+17
1.82052e+17
2.04189e+17
2.25358e+17
2.46259e+17
2.66363e+17
2.8572e+17
3.04479e+17
3.22448e+17
3.39563e+17
3.56076e+17
3.71729e+17
3.8612e+17
3.9989e+17
4.12445e+17
4.24187e+17
4.34643e+17
4.44355e+17
4.53208e+17
4.61113e+17
4.67865e+17
4.73606e+17
4.78685e+17
4.82837e+17
4.86492e+17
4.89106e+17
4.91206e+17
4.92553e+17
4.93095e+17
4.92927e+17
4.92527e+17
4.91255e+17
4.89515e+17
4.87369e+17
4.8453e+17
4.81408e+17
4.77606e+17
4.73475e+17
4.6887e+17
4.63991e+17
4.58728e+17
4.53249e+17
4.47311e+17
4.41029e+17
4.34247e+17
4.27215e+17
4.19832e+17
4.12027e+17
4.04157e+17
3.95873e+17
3.8728e+17
3.78447e+17
3.69379e+17
3.5968e+17
3.4989e+17
3.39717e+17
3.28976e+17
3.17722e+17
3.06087e+17
2.9395e+17
2.81366e+17
2.68273e+17
2.54501e+17
2.39974e+17
2.24501e+17
2.0825e+17
1.9136e+17
1.73421e+17
1.54524e+17
1.34743e+17
1.14031e+17
9.18967e+16
6.84217e+16
4.30343e+16
1.52738e+16
1.88549e+16
5.36101e+16
8.56979e+16
1.15643e+17
1.43609e+17
1.69924e+17
1.94743e+17
2.18286e+17
2.40856e+17
2.6302e+17
2.84288e+17
3.04992e+17
3.24878e+17
3.43767e+17
3.61731e+17
3.78921e+17
3.95095e+17
4.10015e+17
4.24098e+17
4.3707e+17
4.48941e+17
4.5944e+17
4.69192e+17
4.77906e+17
4.85574e+17
4.91929e+17
4.97609e+17
5.02342e+17
5.06126e+17
5.09259e+17
5.11541e+17
5.12972e+17
5.13788e+17
5.13825e+17
5.1321e+17
5.1203e+17
5.10352e+17
5.08013e+17
5.05412e+17
5.01927e+17
4.98248e+17
4.94031e+17
4.89408e+17
4.84225e+17
4.78959e+17
4.73095e+17
4.67057e+17
4.60655e+17
4.53964e+17
4.46745e+17
4.39258e+17
4.31404e+17
4.23261e+17
4.14956e+17
4.06311e+17
3.97304e+17
3.88138e+17
3.789e+17
3.69023e+17
3.59013e+17
3.48619e+17
3.3772e+17
3.26381e+17
3.14552e+17
3.02492e+17
2.89869e+17
2.76724e+17
2.62872e+17
2.4822e+17
2.32577e+17
2.16337e+17
1.99071e+17
1.8075e+17
1.61503e+17
1.41137e+17
1.19629e+17
9.65213e+16
7.19493e+16
4.52997e+16
1.60948e+16
2.00263e+16
5.70067e+16
9.11669e+16
1.23008e+17
1.5276e+17
1.80862e+17
2.07356e+17
2.32427e+17
2.56334e+17
2.79692e+17
3.02309e+17
3.24103e+17
3.44902e+17
3.64766e+17
3.8358e+17
4.01432e+17
4.17944e+17
4.33298e+17
4.47685e+17
4.60738e+17
4.72725e+17
4.83249e+17
4.9295e+17
5.0143e+17
5.08646e+17
5.14698e+17
5.19989e+17
5.23888e+17
5.27533e+17
5.30058e+17
5.31761e+17
5.32828e+17
5.3298e+17
5.32663e+17
5.31389e+17
5.29812e+17
5.27521e+17
5.24575e+17
5.21499e+17
5.17524e+17
5.13379e+17
5.08823e+17
5.03676e+17
4.98173e+17
4.92385e+17
4.86037e+17
4.79406e+17
4.72475e+17
4.65435e+17
4.57742e+17
4.49797e+17
4.41651e+17
4.32972e+17
4.24152e+17
4.15199e+17
4.05989e+17
3.96456e+17
3.87061e+17
3.76892e+17
3.66587e+17
3.5606e+17
3.45138e+17
3.33746e+17
3.21666e+17
3.0968e+17
2.96997e+17
2.83761e+17
2.69867e+17
2.55186e+17
2.39686e+17
2.2326e+17
2.05865e+17
1.87429e+17
1.67775e+17
1.46892e+17
1.24761e+17
1.00817e+17
7.52356e+16
4.74111e+16
1.68474e+16
2.1186e+16
6.04093e+16
9.66712e+16
1.30449e+17
1.61943e+17
1.91679e+17
2.19875e+17
2.46501e+17
2.71877e+17
2.96495e+17
3.2032e+17
3.4315e+17
3.64781e+17
3.85552e+17
4.05117e+17
4.2341e+17
4.4035e+17
4.56004e+17
4.70616e+17
4.83585e+17
4.95426e+17
5.05936e+17
5.15326e+17
5.23413e+17
5.302e+17
5.35882e+17
5.40716e+17
5.44231e+17
5.47343e+17
5.4931e+17
5.50392e+17
5.50898e+17
5.5049e+17
5.49629e+17
5.48041e+17
5.45913e+17
5.43131e+17
5.39797e+17
5.36241e+17
5.31915e+17
5.27267e+17
5.22141e+17
5.16669e+17
5.10728e+17
5.04416e+17
4.9776e+17
4.90678e+17
4.83244e+17
4.7575e+17
4.67663e+17
4.59445e+17
4.50786e+17
4.41842e+17
4.32592e+17
4.23158e+17
4.13603e+17
4.03715e+17
3.93864e+17
3.83596e+17
3.73034e+17
3.62212e+17
3.51046e+17
3.39625e+17
3.27575e+17
3.15372e+17
3.02856e+17
2.89586e+17
2.75761e+17
2.61153e+17
2.45621e+17
2.2936e+17
2.11841e+17
1.93162e+17
1.73364e+17
1.52097e+17
1.29316e+17
1.04781e+17
7.82468e+16
4.93992e+16
1.7587e+16
2.24442e+16
6.38446e+16
1.0213e+17
1.37901e+17
1.71271e+17
2.02664e+17
2.32336e+17
2.60515e+17
2.87256e+17
3.13129e+17
3.38046e+17
3.61859e+17
3.845e+17
4.06115e+17
4.26234e+17
4.44877e+17
4.62218e+17
4.7796e+17
4.92696e+17
5.05577e+17
5.1705e+17
5.27323e+17
5.36254e+17
5.4399e+17
5.50309e+17
5.5555e+17
5.59949e+17
5.63003e+17
5.6542e+17
5.67028e+17
5.67474e+17
5.67482e+17
5.6679e+17
5.65252e+17
5.63314e+17
5.60816e+17
5.57672e+17
5.53983e+17
5.49822e+17
5.45215e+17
5.40166e+17
5.34744e+17
5.28759e+17
5.22367e+17
5.15867e+17
5.08752e+17
5.01315e+17
4.93537e+17
4.85554e+17
4.76904e+17
4.68273e+17
4.5923e+17
4.49958e+17
4.40356e+17
4.30637e+17
4.20621e+17
4.10364e+17
3.99916e+17
3.89404e+17
3.7845e+17
3.67428e+17
3.56093e+17
3.44454e+17
3.32601e+17
3.20234e+17
3.07615e+17
2.94329e+17
2.80528e+17
2.66083e+17
2.50725e+17
2.34549e+17
2.16882e+17
1.98087e+17
1.78172e+17
1.56703e+17
1.33481e+17
1.08349e+17
8.10502e+16
5.12404e+16
1.82824e+16
2.36752e+16
6.72004e+16
1.07594e+17
1.45297e+17
1.80547e+17
2.13621e+17
2.44735e+17
2.74281e+17
3.02445e+17
3.29664e+17
3.5575e+17
3.80361e+17
4.04e+17
4.26172e+17
4.46702e+17
4.6572e+17
4.83329e+17
4.99159e+17
5.13691e+17
5.26468e+17
5.37709e+17
5.47648e+17
5.56126e+17
5.63181e+17
5.69146e+17
5.74081e+17
5.7786e+17
5.80618e+17
5.82354e+17
5.83505e+17
5.83551e+17
5.83099e+17
5.81845e+17
5.7997e+17
5.77719e+17
5.74821e+17
5.71516e+17
5.67395e+17
5.62945e+17
5.57972e+17
5.52605e+17
5.46624e+17
5.40386e+17
5.3361e+17
5.26772e+17
5.19276e+17
5.11533e+17
5.03308e+17
4.94948e+17
4.85902e+17
4.76936e+17
4.67449e+17
4.57927e+17
4.47886e+17
4.37681e+17
4.27184e+17
4.16412e+17
4.05521e+17
3.94608e+17
3.83501e+17
3.72198e+17
3.60376e+17
3.4875e+17
3.3674e+17
3.24164e+17
3.11339e+17
2.98205e+17
2.84354e+17
2.70093e+17
2.54963e+17
2.38687e+17
2.2104e+17
2.02373e+17
1.82365e+17
1.60682e+17
1.37114e+17
1.11539e+17
8.36693e+16
5.29873e+16
1.89543e+16
2.48935e+16
7.06278e+16
1.13041e+17
1.52653e+17
1.89588e+17
2.24353e+17
2.56956e+17
2.87936e+17
3.17647e+17
3.46221e+17
3.73187e+17
3.98676e+17
4.23177e+17
4.45958e+17
4.66902e+17
4.86135e+17
5.03786e+17
5.19639e+17
5.3386e+17
5.46377e+17
5.57402e+17
5.66708e+17
5.74775e+17
5.81459e+17
5.87057e+17
5.91362e+17
5.9466e+17
5.96926e+17
5.98282e+17
5.98999e+17
5.98422e+17
5.97689e+17
5.95999e+17
5.93859e+17
5.91343e+17
5.88115e+17
5.84466e+17
5.8008e+17
5.75423e+17
5.70158e+17
5.64461e+17
5.58398e+17
5.51776e+17
5.44782e+17
5.37511e+17
5.2968e+17
5.21778e+17
5.13032e+17
5.04186e+17
4.9486e+17
4.85414e+17
4.75661e+17
4.65483e+17
4.5501e+17
4.44431e+17
4.33466e+17
4.22361e+17
4.11087e+17
3.99693e+17
3.88141e+17
3.76232e+17
3.64275e+17
3.52374e+17
3.40255e+17
3.27467e+17
3.14372e+17
3.01195e+17
2.87541e+17
2.73055e+17
2.5805e+17
2.41961e+17
2.2447e+17
2.06023e+17
1.86081e+17
1.64191e+17
1.4041e+17
1.14432e+17
8.60764e+16
5.46339e+16
1.9588e+16
2.614e+16
7.41169e+16
1.18466e+17
1.59907e+17
1.98553e+17
2.35115e+17
2.69364e+17
3.01738e+17
3.32953e+17
3.62461e+17
3.90289e+17
4.16873e+17
4.41916e+17
4.65335e+17
4.86604e+17
5.05926e+17
5.23595e+17
5.39218e+17
5.53069e+17
5.65265e+17
5.75712e+17
5.8473e+17
5.92372e+17
5.98857e+17
6.03689e+17
6.07359e+17
6.10186e+17
6.12074e+17
6.1306e+17
6.13352e+17
6.12623e+17
6.11615e+17
6.09702e+17
6.07474e+17
6.045e+17
6.01084e+17
5.97118e+17
5.92615e+17
5.87547e+17
5.8224e+17
5.76301e+17
5.70045e+17
5.63355e+17
5.55939e+17
5.48511e+17
5.40355e+17
5.3206e+17
5.23014e+17
5.13733e+17
5.04035e+17
4.94187e+17
4.83934e+17
4.73385e+17
4.62352e+17
4.51204e+17
4.39938e+17
4.28219e+17
4.16604e+17
4.04567e+17
3.92645e+17
3.80238e+17
3.67867e+17
3.55473e+17
3.43203e+17
3.30193e+17
3.17e+17
3.03676e+17
2.8989e+17
2.7536e+17
2.60449e+17
2.44499e+17
2.27224e+17
2.08884e+17
1.89008e+17
1.67262e+17
1.43345e+17
1.1718e+17
8.82639e+16
5.60952e+16
2.01579e+16
2.72992e+16
7.75433e+16
1.24014e+17
1.67157e+17
2.0766e+17
2.45878e+17
2.81636e+17
3.15566e+17
3.47871e+17
3.78499e+17
4.07323e+17
4.34759e+17
4.60469e+17
4.84134e+17
5.05655e+17
5.25104e+17
5.42663e+17
5.58017e+17
5.71574e+17
5.83276e+17
5.93215e+17
6.01773e+17
6.0886e+17
6.14895e+17
6.19204e+17
6.22498e+17
6.24981e+17
6.26514e+17
6.27248e+17
6.27322e+17
6.26463e+17
6.25159e+17
6.23026e+17
6.20554e+17
6.17579e+17
6.13993e+17
6.09814e+17
6.05079e+17
6.00044e+17
5.94445e+17
5.88427e+17
5.82061e+17
5.75035e+17
5.67534e+17
5.59576e+17
5.51177e+17
5.42429e+17
5.33258e+17
5.23728e+17
5.1374e+17
5.03433e+17
4.9256e+17
4.81549e+17
4.70041e+17
4.5834e+17
4.46514e+17
4.34342e+17
4.22222e+17
4.09634e+17
3.9715e+17
3.84442e+17
3.7151e+17
3.58541e+17
3.45735e+17
3.32479e+17
3.19033e+17
3.05493e+17
2.91579e+17
2.77142e+17
2.62266e+17
2.46512e+17
2.29349e+17
2.11226e+17
1.91369e+17
1.69824e+17
1.45904e+17
1.19543e+17
9.02323e+16
5.74803e+16
2.07018e+16
2.8524e+16
8.09686e+16
1.29389e+17
1.74464e+17
2.16872e+17
2.56622e+17
2.93866e+17
3.29137e+17
3.62508e+17
3.94292e+17
4.24092e+17
4.52285e+17
4.78545e+17
5.0243e+17
5.24183e+17
5.43668e+17
5.6087e+17
5.75989e+17
5.89004e+17
6.00202e+17
6.09819e+17
6.17933e+17
6.24612e+17
6.30019e+17
6.34116e+17
6.37195e+17
6.39171e+17
6.40535e+17
6.41119e+17
6.40965e+17
6.39978e+17
6.38517e+17
6.36561e+17
6.33899e+17
6.30635e+17
6.27005e+17
6.22659e+17
6.18029e+17
6.12689e+17
6.07038e+17
6.00841e+17
5.943e+17
5.87109e+17
5.79509e+17
5.71149e+17
5.62712e+17
5.5349e+17
5.44202e+17
5.34325e+17
5.23994e+17
5.13147e+17
5.01748e+17
4.90191e+17
4.78272e+17
4.66043e+17
4.53433e+17
4.40666e+17
4.27981e+17
4.14886e+17
4.01728e+17
3.88479e+17
3.75047e+17
3.61448e+17
3.48289e+17
3.3447e+17
3.20693e+17
3.06807e+17
2.92839e+17
2.78342e+17
2.63496e+17
2.47767e+17
2.3098e+17
2.13053e+17
1.93392e+17
1.7201e+17
1.48063e+17
1.21521e+17
9.19704e+16
5.87585e+16
2.11853e+16
2.97114e+16
8.42991e+16
1.34828e+17
1.81884e+17
2.25914e+17
2.67302e+17
3.06007e+17
3.42594e+17
3.77281e+17
4.10223e+17
4.40877e+17
4.69777e+17
4.96283e+17
5.20213e+17
5.41978e+17
5.6118e+17
5.78244e+17
5.92965e+17
6.05546e+17
6.16364e+17
6.25675e+17
6.33389e+17
6.39675e+17
6.44602e+17
6.48313e+17
6.51156e+17
6.53044e+17
6.54024e+17
6.5441e+17
6.54149e+17
6.53358e+17
6.51702e+17
6.4971e+17
6.47083e+17
6.43816e+17
6.40053e+17
6.35719e+17
6.31097e+17
6.2572e+17
6.20066e+17
6.1364e+17
6.06909e+17
5.99571e+17
5.91897e+17
5.83446e+17
5.74682e+17
5.6527e+17
5.55669e+17
5.45553e+17
5.34725e+17
5.23646e+17
5.11957e+17
4.99927e+17
4.87381e+17
4.74684e+17
4.61489e+17
4.4783e+17
4.34464e+17
4.20799e+17
4.06835e+17
3.9295e+17
3.78959e+17
3.64666e+17
3.50878e+17
3.36728e+17
3.22479e+17
3.08129e+17
2.93814e+17
2.79289e+17
2.64216e+17
2.48582e+17
2.32122e+17
2.14331e+17
1.94867e+17
1.73717e+17
1.49848e+17
1.2335e+17
9.35728e+16
5.98589e+16
2.15306e+16
3.08542e+16
8.75113e+16
1.40126e+17
1.89052e+17
2.349e+17
2.77936e+17
3.1823e+17
3.56151e+17
3.92012e+17
4.25805e+17
4.57247e+17
4.86638e+17
5.13412e+17
5.37577e+17
5.59249e+17
5.78296e+17
5.94878e+17
6.09014e+17
6.21406e+17
6.31955e+17
6.40842e+17
6.47997e+17
6.53875e+17
6.58421e+17
6.61846e+17
6.64524e+17
6.66302e+17
6.67264e+17
6.6759e+17
6.67428e+17
6.66459e+17
6.64978e+17
6.62995e+17
6.60373e+17
6.57202e+17
6.53491e+17
6.49109e+17
6.4439e+17
6.39079e+17
6.33305e+17
6.27079e+17
6.20348e+17
6.12962e+17
6.05005e+17
5.96517e+17
5.87477e+17
5.77784e+17
5.6785e+17
5.57307e+17
5.46259e+17
5.34788e+17
5.2277e+17
5.10215e+17
4.97336e+17
4.83911e+17
4.70297e+17
4.55986e+17
4.41717e+17
4.27195e+17
4.12509e+17
3.97823e+17
3.83264e+17
3.68203e+17
3.53527e+17
3.38868e+17
3.24249e+17
3.09456e+17
2.94687e+17
2.79896e+17
2.64779e+17
2.4915e+17
2.32728e+17
2.14901e+17
1.95833e+17
1.74806e+17
1.51181e+17
1.24818e+17
9.48957e+16
6.08149e+16
2.1904e+16
3.19721e+16
9.07148e+16
1.45326e+17
1.96267e+17
2.43872e+17
2.88502e+17
3.30299e+17
3.69583e+17
4.06463e+17
4.41235e+17
4.73567e+17
5.03257e+17
5.30185e+17
5.54321e+17
5.75776e+17
5.94467e+17
6.10615e+17
6.24418e+17
6.36592e+17
6.46462e+17
6.5477e+17
6.61781e+17
6.67279e+17
6.71675e+17
6.75131e+17
6.77741e+17
6.79536e+17
6.80508e+17
6.80919e+17
6.8074e+17
6.79984e+17
6.78538e+17
6.76417e+17
6.73849e+17
6.7083e+17
6.67064e+17
6.63031e+17
6.58265e+17
6.53003e+17
6.47249e+17
6.40837e+17
6.34026e+17
6.265e+17
6.18647e+17
6.0988e+17
6.00741e+17
5.91084e+17
5.80899e+17
5.70033e+17
5.58634e+17
5.46597e+17
5.34214e+17
5.21157e+17
5.07807e+17
4.93995e+17
4.79617e+17
4.6486e+17
4.49744e+17
4.34549e+17
4.18984e+17
4.03429e+17
3.88026e+17
3.72364e+17
3.56786e+17
3.41443e+17
3.26119e+17
3.10866e+17
2.956e+17
2.8045e+17
2.65028e+17
2.49352e+17
2.33109e+17
2.15408e+17
1.96583e+17
1.75653e+17
1.52271e+17
1.25956e+17
9.59809e+16
6.16375e+16
2.22742e+16
3.30877e+16
9.38774e+16
1.50537e+17
2.03453e+17
2.52781e+17
2.98899e+17
3.42183e+17
3.82788e+17
4.20868e+17
4.56287e+17
4.89211e+17
5.19312e+17
5.46348e+17
5.70517e+17
5.91674e+17
6.09871e+17
6.25704e+17
6.39139e+17
6.50803e+17
6.60449e+17
6.68526e+17
6.75109e+17
6.8051e+17
6.84804e+17
6.88302e+17
6.90649e+17
6.9257e+17
6.93555e+17
6.94016e+17
6.93958e+17
6.93209e+17
6.91882e+17
6.90007e+17
6.87478e+17
6.84388e+17
6.81027e+17
6.76853e+17
6.72366e+17
6.6701e+17
6.6132e+17
6.54945e+17
6.48075e+17
6.40571e+17
6.32584e+17
6.23925e+17
6.1462e+17
6.04608e+17
5.94508e+17
5.83178e+17
5.71715e+17
5.59334e+17
5.46571e+17
5.3298e+17
5.19138e+17
5.04766e+17
4.89946e+17
4.74545e+17
4.58861e+17
4.42838e+17
4.2655e+17
4.10145e+17
3.93703e+17
3.77199e+17
3.60591e+17
3.44388e+17
3.28322e+17
3.12262e+17
2.96438e+17
2.80757e+17
2.65152e+17
2.49284e+17
2.33196e+17
2.15683e+17
1.96885e+17
1.76221e+17
1.53076e+17
1.26925e+17
9.68839e+16
6.22918e+16
2.25719e+16
3.41894e+16
9.7074e+16
1.55704e+17
2.10522e+17
2.61569e+17
3.09246e+17
3.54029e+17
3.95909e+17
4.35041e+17
4.71297e+17
5.04793e+17
5.35e+17
5.62161e+17
5.85959e+17
6.06728e+17
6.24749e+17
6.40134e+17
6.53367e+17
6.64545e+17
6.73972e+17
6.81633e+17
6.87973e+17
6.93397e+17
6.97754e+17
7.01143e+17
7.03802e+17
7.05685e+17
7.06741e+17
7.07427e+17
7.07339e+17
7.06835e+17
7.05582e+17
7.03643e+17
7.01272e+17
6.98352e+17
6.95103e+17
6.90978e+17
6.86442e+17
6.81346e+17
6.7579e+17
6.69342e+17
6.62422e+17
6.55026e+17
6.47026e+17
6.38148e+17
6.28853e+17
6.18772e+17
6.08568e+17
5.97224e+17
5.85335e+17
5.72828e+17
5.59666e+17
5.45846e+17
5.31437e+17
5.16455e+17
5.01097e+17
4.85085e+17
4.68607e+17
4.51874e+17
4.34781e+17
4.17428e+17
4.00082e+17
3.82787e+17
3.65342e+17
3.48085e+17
3.3123e+17
3.14361e+17
2.97715e+17
2.81488e+17
2.65497e+17
2.49396e+17
2.33003e+17
2.15621e+17
1.9691e+17
1.76493e+17
1.53456e+17
1.27553e+17
9.75745e+16
6.28919e+16
2.28035e+16
3.53025e+16
1.00307e+17
1.60927e+17
2.17548e+17
2.70316e+17
3.19633e+17
3.65889e+17
4.08995e+17
4.49014e+17
4.86175e+17
5.19944e+17
5.50234e+17
5.77305e+17
6.00876e+17
6.21289e+17
6.38979e+17
6.53983e+17
6.66823e+17
6.77793e+17
6.8683e+17
6.9435e+17
7.00747e+17
7.06192e+17
7.10591e+17
7.13819e+17
7.16567e+17
7.18627e+17
7.19769e+17
7.2055e+17
7.20656e+17
7.20226e+17
7.19148e+17
7.17628e+17
7.1542e+17
7.12808e+17
7.09435e+17
7.05542e+17
7.0099e+17
6.95995e+17
6.90407e+17
6.8402e+17
6.77152e+17
6.69767e+17
6.61621e+17
6.5291e+17
6.4365e+17
6.3372e+17
6.23039e+17
6.11746e+17
5.99626e+17
5.86975e+17
5.73437e+17
5.59411e+17
5.4469e+17
5.29208e+17
5.13055e+17
4.96665e+17
4.79483e+17
4.61911e+17
4.43941e+17
4.25672e+17
4.0745e+17
3.89193e+17
3.70744e+17
3.52525e+17
3.34458e+17
3.16642e+17
2.99448e+17
2.82328e+17
2.65757e+17
2.49272e+17
2.3278e+17
2.1535e+17
1.96812e+17
1.76469e+17
1.53589e+17
1.27976e+17
9.82178e+16
6.34685e+16
2.3051e+16
3.64108e+16
1.03565e+17
1.6622e+17
2.246e+17
2.7917e+17
3.30172e+17
3.77742e+17
4.22108e+17
4.62952e+17
5.00601e+17
5.34725e+17
5.65106e+17
5.92073e+17
6.15172e+17
6.35409e+17
6.52756e+17
6.6738e+17
6.79954e+17
6.90566e+17
6.99412e+17
7.06969e+17
7.13384e+17
7.18882e+17
7.23029e+17
7.26577e+17
7.29515e+17
7.31643e+17
7.32919e+17
7.33979e+17
7.34432e+17
7.34027e+17
7.33242e+17
7.31797e+17
7.29798e+17
7.27217e+17
7.23949e+17
7.2e+17
7.15525e+17
7.10561e+17
7.05023e+17
6.99e+17
6.92178e+17
6.84776e+17
6.76711e+17
6.68141e+17
6.58838e+17
6.48907e+17
6.3824e+17
6.26696e+17
6.14559e+17
6.01619e+17
5.88062e+17
5.73629e+17
5.58554e+17
5.4279e+17
5.26158e+17
5.08954e+17
4.91214e+17
4.72901e+17
4.54064e+17
4.34971e+17
4.15619e+17
3.96356e+17
3.76943e+17
3.57546e+17
3.38636e+17
3.19892e+17
3.01573e+17
2.83635e+17
2.66399e+17
2.49251e+17
2.32396e+17
2.14904e+17
1.96317e+17
1.7605e+17
1.53497e+17
1.28121e+17
9.85045e+16
6.38139e+16
2.32488e+16
3.75029e+16
1.068e+17
1.71376e+17
2.31725e+17
2.8802e+17
3.40465e+17
3.89401e+17
4.34902e+17
4.76572e+17
5.14744e+17
5.49158e+17
5.79703e+17
6.06264e+17
6.2917e+17
6.49084e+17
6.65971e+17
6.80262e+17
6.92566e+17
7.02964e+17
7.11768e+17
7.19276e+17
7.25866e+17
7.31163e+17
7.35671e+17
7.39347e+17
7.42381e+17
7.44801e+17
7.46465e+17
7.47791e+17
7.48239e+17
7.48042e+17
7.47231e+17
7.45933e+17
7.44082e+17
7.41306e+17
7.38267e+17
7.34413e+17
7.302e+17
7.25291e+17
7.1985e+17
7.13977e+17
7.07194e+17
7.00108e+17
6.92125e+17
6.83604e+17
6.74283e+17
6.64295e+17
6.53745e+17
6.42411e+17
6.30129e+17
6.17139e+17
6.03251e+17
5.88662e+17
5.73152e+17
5.57012e+17
5.39977e+17
5.22347e+17
5.04007e+17
4.85023e+17
4.65403e+17
4.45246e+17
4.24775e+17
4.04432e+17
3.83915e+17
3.63449e+17