/*--------------------------------*- C++ -*----------------------------------*\
  =========                 |
  \\      /  F ield         | OpenFOAM: The Open Source CFD Toolbox
   \\    /   O peration     | Website:  https://openfoam.org
    \\  /    A nd           | Version:  6
     \\/     M anipulation  |
\*---------------------------------------------------------------------------*/
FoamFile
{
    version     2.0;
    format      ascii;
    class       volScalarField;
    location    "600";
    object      dnp2_s;
}
// * * * * * * * * * * * * * * * * * * * * * * * * * * * * * * * * * * * * * //

dimensions      [0 -3 -1 0 0 0 0];

internalField   nonuniform List<scalar> 
6400
(
1.57429e+14
2.55609e+14
3.45805e+14
4.37713e+14
5.55755e+14
6.47489e+14
7.14496e+14
8.20939e+14
9.0148e+14
1.00217e+15
1.05763e+15
1.19395e+15
1.23408e+15
1.29984e+15
1.41392e+15
1.47482e+15
1.60222e+15
1.60914e+15
1.73168e+15
1.75556e+15
1.88509e+15
1.91533e+15
1.91649e+15
1.97256e+15
2.06965e+15
2.06524e+15
2.15108e+15
2.16714e+15
2.23623e+15
2.28454e+15
2.44899e+15
2.33764e+15
2.39031e+15
2.42676e+15
2.47716e+15
2.39987e+15
2.51901e+15
2.45305e+15
2.4681e+15
2.42059e+15
2.55717e+15
2.44579e+15
2.52895e+15
2.42027e+15
2.41005e+15
2.39293e+15
2.43223e+15
2.41109e+15
2.3066e+15
2.37714e+15
2.26781e+15
2.35184e+15
2.20621e+15
2.17137e+15
2.10676e+15
2.06997e+15
2.00278e+15
1.97797e+15
1.87442e+15
1.8201e+15
1.74361e+15
1.68567e+15
1.61488e+15
1.54058e+15
1.48932e+15
1.37708e+15
1.35576e+15
1.20472e+15
1.20185e+15
1.08362e+15
1.00321e+15
9.13316e+14
7.98697e+14
7.3173e+14
6.28644e+14
5.885e+14
4.54357e+14
3.58367e+14
2.77576e+14
1.58443e+14
2.38925e+14
3.74243e+14
5.51536e+14
7.22116e+14
8.4838e+14
1.008e+15
1.10966e+15
1.26852e+15
1.46166e+15
1.51237e+15
1.65035e+15
1.79333e+15
1.98425e+15
2.01135e+15
2.17731e+15
2.35898e+15
2.44356e+15
2.57432e+15
2.62363e+15
2.75438e+15
2.8156e+15
2.98231e+15
2.98466e+15
3.06177e+15
3.2201e+15
3.25599e+15
3.35153e+15
3.36728e+15
3.56659e+15
3.52017e+15
3.61333e+15
3.56322e+15
3.79839e+15
3.65546e+15
3.73552e+15
3.74368e+15
3.80438e+15
3.79827e+15
3.88177e+15
3.8454e+15
3.89869e+15
3.91297e+15
3.87536e+15
3.79747e+15
3.72632e+15
3.70273e+15
3.77044e+15
3.63753e+15
3.65585e+15
3.61413e+15
3.57731e+15
3.53381e+15
3.48487e+15
3.36377e+15
3.25745e+15
3.16465e+15
3.08635e+15
2.99274e+15
2.95962e+15
2.80614e+15
2.6908e+15
2.58758e+15
2.47256e+15
2.32406e+15
2.29907e+15
2.19398e+15
2.03963e+15
1.9057e+15
1.76701e+15
1.71378e+15
1.54755e+15
1.38899e+15
1.21964e+15
1.10375e+15
9.94091e+14
8.30547e+14
6.93877e+14
5.34782e+14
4.46334e+14
2.31821e+14
3.25249e+14
5.27309e+14
7.10837e+14
9.63648e+14
1.08839e+15
1.28713e+15
1.46841e+15
1.67021e+15
1.89136e+15
1.9904e+15
2.15213e+15
2.3317e+15
2.57501e+15
2.66442e+15
2.94746e+15
3.11627e+15
3.21393e+15
3.35069e+15
3.51359e+15
3.69507e+15
3.73115e+15
3.97715e+15
3.94427e+15
4.07256e+15
4.25918e+15
4.34005e+15
4.46834e+15
4.6915e+15
4.67736e+15
4.66617e+15
4.75472e+15
4.90326e+15
4.9212e+15
4.95573e+15
5.00317e+15
5.07139e+15
5.11054e+15
5.13663e+15
4.98568e+15
5.0528e+15
5.02221e+15
5.10277e+15
5.09907e+15
5.10786e+15
4.98939e+15
4.91298e+15
4.92781e+15
4.85045e+15
4.7719e+15
4.77989e+15
4.75868e+15
4.64799e+15
4.60112e+15
4.46331e+15
4.3256e+15
4.22996e+15
4.03584e+15
4.04202e+15
3.94086e+15
3.7678e+15
3.53664e+15
3.49734e+15
3.34227e+15
3.09036e+15
3.00179e+15
2.9085e+15
2.70055e+15
2.53889e+15
2.32836e+15
2.25983e+15
2.08908e+15
1.91939e+15
1.63254e+15
1.56644e+15
1.30973e+15
1.11075e+15
9.64101e+14
7.2291e+14
5.54095e+14
3.28123e+14
3.947e+14
6.38515e+14
9.3197e+14
1.18809e+15
1.41669e+15
1.63318e+15
1.86385e+15
2.07185e+15
2.39078e+15
2.57024e+15
2.72583e+15
2.9764e+15
3.11527e+15
3.44894e+15
3.61036e+15
3.82225e+15
4.00775e+15
4.16436e+15
4.43728e+15
4.53009e+15
4.8055e+15
4.92305e+15
4.97153e+15
5.18231e+15
5.30595e+15
5.51477e+15
5.42683e+15
5.61573e+15
5.77359e+15
5.7885e+15
6.02673e+15
6.05582e+15
6.04091e+15
6.21305e+15
6.20231e+15
6.27083e+15
6.34361e+15
6.36389e+15
6.28439e+15
6.28072e+15
6.33487e+15
6.38865e+15
6.34304e+15
6.18869e+15
6.20522e+15
6.0891e+15
6.02731e+15
6.07581e+15
6.00184e+15
5.92364e+15
5.85946e+15
5.7851e+15
5.67802e+15
5.52343e+15
5.40254e+15
5.27308e+15
5.15744e+15
4.97976e+15
4.81467e+15
4.709e+15
4.47435e+15
4.30942e+15
4.0926e+15
3.91898e+15
3.80703e+15
3.56254e+15
3.37266e+15
3.24387e+15
2.96591e+15
2.78066e+15
2.58831e+15
2.36328e+15
2.10374e+15
1.88653e+15
1.66668e+15
1.38162e+15
1.18026e+15
9.18648e+14
6.45744e+14
4.01975e+14
4.64061e+14
8.48662e+14
1.07236e+15
1.38905e+15
1.6544e+15
1.97963e+15
2.23843e+15
2.51585e+15
2.7826e+15
3.07054e+15
3.35165e+15
3.5133e+15
3.73777e+15
4.10328e+15
4.40788e+15
4.61689e+15
4.84266e+15
5.06357e+15
5.18296e+15
5.43074e+15
5.57907e+15
5.80087e+15
5.9857e+15
6.16995e+15
6.39561e+15
6.55571e+15
6.65049e+15
6.77043e+15
6.86532e+15
7.05667e+15
7.06515e+15
7.10141e+15
7.27421e+15
7.19831e+15
7.35595e+15
7.38715e+15
7.45122e+15
7.65346e+15
7.61936e+15
7.68931e+15
7.59741e+15
7.6428e+15
7.62613e+15
7.48835e+15
7.26705e+15
7.36596e+15
7.35984e+15
7.1972e+15
7.2797e+15
7.07807e+15
7.04489e+15
6.76506e+15
6.7436e+15
6.82137e+15
6.58283e+15
6.3878e+15
6.23594e+15
5.99011e+15
5.77566e+15
5.6502e+15
5.43714e+15
5.0836e+15
4.89217e+15
4.67892e+15
4.49922e+15
4.28865e+15
4.08509e+15
3.94045e+15
3.54364e+15
3.34514e+15
3.04184e+15
2.75045e+15
2.55921e+15
2.19254e+15
1.89178e+15
1.65366e+15
1.38522e+15
1.11265e+15
7.58078e+14
4.62716e+14
5.59649e+14
9.52296e+14
1.29978e+15
1.66346e+15
1.91107e+15
2.26007e+15
2.58469e+15
2.94887e+15
3.24402e+15
3.55192e+15
3.83936e+15
4.09685e+15
4.40787e+15
4.80054e+15
5.10625e+15
5.23383e+15
5.61066e+15
5.78439e+15
5.96571e+15
6.35863e+15
6.61853e+15
6.7802e+15
6.91399e+15
7.17658e+15
7.3525e+15
7.59037e+15
7.69637e+15
7.86009e+15
8.00996e+15
8.17405e+15
8.12308e+15
8.28171e+15
8.4734e+15
8.55127e+15
8.63336e+15
8.69575e+15
8.77283e+15
8.90879e+15
9.03379e+15
8.77791e+15
8.85594e+15
8.8643e+15
8.7328e+15
8.74953e+15
8.68183e+15
8.6884e+15
8.55487e+15
8.45886e+15
8.40422e+15
8.26709e+15
8.17171e+15
8.00253e+15
7.78878e+15
7.73895e+15
7.573e+15
7.41336e+15
7.24966e+15
6.96056e+15
6.7264e+15
6.60209e+15
6.38891e+15
6.03078e+15
5.82787e+15
5.45531e+15
5.2486e+15
5.03262e+15
4.81876e+15
4.45104e+15
4.13993e+15
3.89099e+15
3.55823e+15
3.2184e+15
2.90602e+15
2.55708e+15
2.21681e+15
1.95455e+15
1.62521e+15
1.29763e+15
8.82615e+14
5.53882e+14
6.22483e+14
1.04013e+15
1.47633e+15
1.87543e+15
2.16761e+15
2.547e+15
2.9188e+15
3.32127e+15
3.65226e+15
4.07313e+15
4.36065e+15
4.692e+15
5.05871e+15
5.39264e+15
5.65441e+15
6.03922e+15
6.22582e+15
6.6183e+15
6.99564e+15
7.25796e+15
7.43678e+15
7.74757e+15
7.86134e+15
8.02106e+15
8.29171e+15
8.61874e+15
8.95022e+15
9.04724e+15
8.94389e+15
9.26325e+15
9.40788e+15
9.5128e+15
9.59239e+15
9.64938e+15
9.82044e+15
9.8829e+15
1.01181e+16
1.00941e+16
9.95545e+15
1.00359e+16
1.00601e+16
1.01041e+16
1.00431e+16
1.00499e+16
9.87649e+15
9.82247e+15
9.82904e+15
9.75148e+15
9.56424e+15
9.43423e+15
9.20665e+15
9.07945e+15
9.17319e+15
8.721e+15
8.50616e+15
8.56511e+15
8.3337e+15
7.95242e+15
7.58672e+15
7.55129e+15
7.31251e+15
6.98998e+15
6.57887e+15
6.26111e+15
5.99694e+15
5.66346e+15
5.58921e+15
5.18625e+15
4.73094e+15
4.49378e+15
4.02547e+15
3.68534e+15
3.32066e+15
2.94941e+15
2.50243e+15
2.2052e+15
1.78033e+15
1.50286e+15
1.0791e+15
6.6693e+14
7.01211e+14
1.20328e+15
1.68223e+15
2.10112e+15
2.46383e+15
2.92657e+15
3.34355e+15
3.66351e+15
4.17057e+15
4.56695e+15
4.89278e+15
5.2859e+15
5.76198e+15
5.98248e+15
6.35636e+15
6.80035e+15
7.14536e+15
7.48444e+15
7.72746e+15
8.10057e+15
8.29742e+15
8.5655e+15
8.90925e+15
9.10541e+15
9.35042e+15
9.56471e+15
9.95154e+15
9.8872e+15
1.03403e+16
1.05481e+16
1.04865e+16
1.0598e+16
1.06998e+16
1.08244e+16
1.10266e+16
1.09823e+16
1.11783e+16
1.1278e+16
1.13328e+16
1.13239e+16
1.13505e+16
1.12516e+16
1.11918e+16
1.14063e+16
1.11076e+16
1.08783e+16
1.10073e+16
1.08402e+16
1.07607e+16
1.0446e+16
1.04045e+16
1.03478e+16
9.95639e+15
9.77587e+15
9.56158e+15
9.42672e+15
9.21048e+15
9.09649e+15
8.75e+15
8.31697e+15
8.05037e+15
7.68836e+15
7.35898e+15
6.94174e+15
6.76937e+15
6.41974e+15
6.09663e+15
5.80211e+15
5.45609e+15
4.98388e+15
4.55659e+15
4.11961e+15
3.77426e+15
3.27036e+15
2.8993e+15
2.44603e+15
2.01232e+15
1.68712e+15
1.22639e+15
7.20384e+14
7.60095e+14
1.30188e+15
1.89117e+15
2.33586e+15
2.8286e+15
3.16582e+15
3.70197e+15
4.17469e+15
4.55302e+15
5.01872e+15
5.52726e+15
5.76786e+15
6.32203e+15
6.83286e+15
7.25344e+15
7.33675e+15
7.81487e+15
8.43001e+15
8.62961e+15
8.93169e+15
9.29093e+15
9.52789e+15
9.69926e+15
1.01812e+16
1.03222e+16
1.05932e+16
1.09568e+16
1.10436e+16
1.12283e+16
1.14568e+16
1.17125e+16
1.18064e+16
1.21189e+16
1.21433e+16
1.21437e+16
1.22713e+16
1.2415e+16
1.25539e+16
1.26433e+16
1.25878e+16
1.25294e+16
1.25401e+16
1.23628e+16
1.23205e+16
1.22912e+16
1.20681e+16
1.20147e+16
1.18457e+16
1.18706e+16
1.17218e+16
1.14689e+16
1.12353e+16
1.0998e+16
1.08881e+16
1.0634e+16
1.04377e+16
1.02669e+16
9.98665e+15
9.53852e+15
9.30891e+15
8.8113e+15
8.67863e+15
8.31845e+15
7.88847e+15
7.33422e+15
7.0134e+15
6.77759e+15
6.30628e+15
5.95759e+15
5.46247e+15
5.12102e+15
4.7069e+15
4.16636e+15
3.6461e+15
3.2079e+15
2.75943e+15
2.26348e+15
1.84376e+15
1.28629e+15
8.08008e+14
8.54775e+14
1.37947e+15
2.01013e+15
2.54075e+15
3.08495e+15
3.52727e+15
4.05514e+15
4.49321e+15
5.02781e+15
5.54239e+15
6.09838e+15
6.48038e+15
6.80881e+15
7.43219e+15
7.869e+15
8.28601e+15
8.70247e+15
9.10197e+15
9.48512e+15
9.84811e+15
1.02856e+16
1.04581e+16
1.07979e+16
1.11964e+16
1.15011e+16
1.18712e+16
1.20495e+16
1.22944e+16
1.25367e+16
1.26993e+16
1.29281e+16
1.30825e+16
1.32643e+16
1.33005e+16
1.3536e+16
1.34566e+16
1.36578e+16
1.36426e+16
1.36141e+16
1.37324e+16
1.38653e+16
1.3726e+16
1.37083e+16
1.35612e+16
1.35304e+16
1.33389e+16
1.32402e+16
1.30824e+16
1.30079e+16
1.28273e+16
1.26809e+16
1.24644e+16
1.22475e+16
1.20331e+16
1.16489e+16
1.16228e+16
1.11969e+16
1.07211e+16
1.05423e+16
1.01554e+16
9.72764e+15
9.24793e+15
8.8378e+15
8.48607e+15
8.16647e+15
7.86697e+15
7.39893e+15
6.99117e+15
6.35011e+15
6.03072e+15
5.57458e+15
5.062e+15
4.4043e+15
3.97568e+15
3.46717e+15
3.02499e+15
2.48512e+15
1.96029e+15
1.45396e+15
8.41625e+14
9.66885e+14
1.51589e+15
2.1794e+15
2.73516e+15
3.22061e+15
3.8399e+15
4.41e+15
4.88539e+15
5.5287e+15
6.04652e+15
6.76162e+15
7.0594e+15
7.36037e+15
7.96563e+15
8.50296e+15
8.91254e+15
9.40311e+15
9.81919e+15
1.02826e+16
1.08275e+16
1.11643e+16
1.15658e+16
1.17781e+16
1.1868e+16
1.23761e+16
1.27843e+16
1.31647e+16
1.3266e+16
1.36913e+16
1.37626e+16
1.39333e+16
1.40368e+16
1.42208e+16
1.44691e+16
1.46934e+16
1.47403e+16
1.47664e+16
1.50026e+16
1.48768e+16
1.52191e+16
1.50982e+16
1.49459e+16
1.50378e+16
1.48172e+16
1.47173e+16
1.43964e+16
1.44755e+16
1.43564e+16
1.4139e+16
1.40174e+16
1.38656e+16
1.35244e+16
1.32488e+16
1.29706e+16
1.27809e+16
1.25506e+16
1.1906e+16
1.17861e+16
1.1402e+16
1.10412e+16
1.07025e+16
1.00718e+16
9.77705e+15
9.29202e+15
8.89487e+15
8.63219e+15
8.03857e+15
7.4632e+15
7.08639e+15
6.49467e+15
6.04909e+15
5.47485e+15
4.88529e+15
4.37429e+15
3.84691e+15
3.30103e+15
2.64506e+15
2.15804e+15
1.54917e+15
9.07984e+14
1.1071e+15
1.67588e+15
2.30297e+15
2.96771e+15
3.56433e+15
4.1221e+15
4.7633e+15
5.29135e+15
5.81777e+15
6.46547e+15
7.08826e+15
7.63187e+15
7.95148e+15
8.5533e+15
9.11268e+15
9.72443e+15
1.03009e+16
1.06978e+16
1.11518e+16
1.15804e+16
1.19399e+16
1.25179e+16
1.25894e+16
1.30652e+16
1.35169e+16
1.38106e+16
1.41865e+16
1.43913e+16
1.44842e+16
1.49246e+16
1.51964e+16
1.54108e+16
1.57169e+16
1.57382e+16
1.57575e+16
1.58789e+16
1.62322e+16
1.62109e+16
1.59886e+16
1.61541e+16
1.61674e+16
1.63103e+16
1.61264e+16
1.59725e+16
1.57424e+16
1.5751e+16
1.5595e+16
1.5343e+16
1.53043e+16
1.50764e+16
1.49397e+16
1.46544e+16
1.43143e+16
1.41909e+16
1.38949e+16
1.34518e+16
1.31882e+16
1.26904e+16
1.22564e+16
1.20043e+16
1.16617e+16
1.1099e+16
1.06637e+16
1.01602e+16
9.68417e+15
9.15638e+15
8.71029e+15
8.07969e+15
7.52118e+15
7.04184e+15
6.46876e+15
6.00356e+15
5.29526e+15
4.71207e+15
4.11898e+15
3.51937e+15
2.96953e+15
2.32256e+15
1.65783e+15
9.97156e+14
1.1474e+15
1.82233e+15
2.51914e+15
3.14334e+15
3.81184e+15
4.47441e+15
5.09126e+15
5.88043e+15
6.28156e+15
6.95253e+15
7.60207e+15
8.1961e+15
8.76931e+15
9.32423e+15
9.76063e+15
1.04559e+16
1.0881e+16
1.13412e+16
1.18343e+16
1.23036e+16
1.27923e+16
1.35231e+16
1.37214e+16
1.41329e+16
1.4723e+16
1.49556e+16
1.529e+16
1.55105e+16
1.58065e+16
1.61036e+16
1.63641e+16
1.64241e+16
1.66272e+16
1.71326e+16
1.69957e+16
1.7268e+16
1.72747e+16
1.7234e+16
1.73461e+16
1.73121e+16
1.75067e+16
1.72798e+16
1.74196e+16
1.72803e+16
1.72909e+16
1.70692e+16
1.68797e+16
1.67817e+16
1.65665e+16
1.63768e+16
1.6164e+16
1.58351e+16
1.56171e+16
1.51699e+16
1.48896e+16
1.45641e+16
1.4183e+16
1.37211e+16
1.32631e+16
1.28339e+16
1.24195e+16
1.21767e+16
1.14596e+16
1.10758e+16
1.04411e+16
9.90964e+15
9.31477e+15
8.58755e+15
8.22174e+15
7.54207e+15
6.92458e+15
6.37445e+15
5.70609e+15
4.9593e+15
4.44339e+15
3.70617e+15
3.14795e+15
2.48611e+15
1.81786e+15
1.03958e+15
1.21407e+15
2.00753e+15
2.70123e+15
3.35617e+15
4.13773e+15
4.8332e+15
5.42632e+15
6.12086e+15
6.62514e+15
7.48468e+15
8.17921e+15
8.76431e+15
9.47301e+15
1.00653e+16
1.0479e+16
1.10257e+16
1.18716e+16
1.21947e+16
1.29421e+16
1.32987e+16
1.39895e+16
1.41861e+16
1.46626e+16
1.50617e+16
1.56352e+16
1.62304e+16
1.63469e+16
1.67492e+16
1.67722e+16
1.72623e+16
1.73564e+16
1.76999e+16
1.80251e+16
1.82355e+16
1.81054e+16
1.84675e+16
1.85776e+16
1.8576e+16
1.8735e+16
1.86642e+16
1.88056e+16
1.87245e+16
1.86163e+16
1.84656e+16
1.82367e+16
1.80441e+16
1.79907e+16
1.78405e+16
1.77584e+16
1.74866e+16
1.72408e+16
1.70814e+16
1.65456e+16
1.62935e+16
1.59505e+16
1.5565e+16
1.51265e+16
1.48539e+16
1.42216e+16
1.37389e+16
1.33739e+16
1.28941e+16
1.23144e+16
1.17911e+16
1.1098e+16
1.04757e+16
9.9338e+15
9.39905e+15
8.83014e+15
8.16741e+15
7.32841e+15
6.81727e+15
6.14779e+15
5.37631e+15
4.62378e+15
4.06966e+15
3.26023e+15
2.61407e+15
1.89126e+15
1.13521e+15
1.19561e+15
2.0829e+15
2.83087e+15
3.67068e+15
4.39416e+15
5.15289e+15
5.90317e+15
6.55457e+15
7.14632e+15
7.96727e+15
8.49631e+15
9.31923e+15
1.01009e+16
1.07081e+16
1.1242e+16
1.18382e+16
1.25216e+16
1.29897e+16
1.35112e+16
1.41574e+16
1.4813e+16
1.51187e+16
1.55755e+16
1.60352e+16
1.67018e+16
1.68959e+16
1.73858e+16
1.79138e+16
1.80767e+16
1.83718e+16
1.88405e+16
1.89146e+16
1.92261e+16
1.9428e+16
1.96447e+16
1.9555e+16
1.98287e+16
1.97386e+16
2.00649e+16
1.9948e+16
1.98991e+16
1.98678e+16
1.99541e+16
1.95618e+16
1.9584e+16
1.93349e+16
1.91528e+16
1.89714e+16
1.88727e+16
1.86736e+16
1.84416e+16
1.8066e+16
1.77252e+16
1.74354e+16
1.70877e+16
1.65077e+16
1.5935e+16
1.56136e+16
1.51083e+16
1.46583e+16
1.4182e+16
1.35918e+16
1.30204e+16
1.23899e+16
1.17688e+16
1.1156e+16
1.06065e+16
1.00131e+16
9.41938e+15
8.51617e+15
8.01074e+15
7.27362e+15
6.44164e+15
5.80805e+15
5.0777e+15
4.39145e+15
3.53765e+15
2.83404e+15
2.04958e+15
1.22069e+15
1.27448e+15
2.21125e+15
2.99816e+15
3.79869e+15
4.55632e+15
5.454e+15
6.26447e+15
7.03324e+15
7.60263e+15
8.32244e+15
9.12855e+15
9.88705e+15
1.05452e+16
1.12785e+16
1.19271e+16
1.2716e+16
1.32373e+16
1.37561e+16
1.44255e+16
1.49094e+16
1.56737e+16
1.60451e+16
1.6633e+16
1.72548e+16
1.77506e+16
1.80578e+16
1.87488e+16
1.85081e+16
1.90817e+16
1.94471e+16
1.96366e+16
2.01235e+16
2.02002e+16
2.07126e+16
2.06356e+16
2.08764e+16
2.11223e+16
2.08486e+16
2.11492e+16
2.10522e+16
2.09344e+16
2.11529e+16
2.10604e+16
2.09121e+16
2.09419e+16
2.0737e+16
2.04588e+16
2.00612e+16
2.00756e+16
1.9863e+16
1.93851e+16
1.93095e+16
1.881e+16
1.82743e+16
1.78991e+16
1.75285e+16
1.68104e+16
1.67031e+16
1.60728e+16
1.54608e+16
1.50032e+16
1.45637e+16
1.40675e+16
1.30733e+16
1.26492e+16
1.18763e+16
1.12289e+16
1.05423e+16
9.82005e+15
9.19398e+15
8.34402e+15
7.64028e+15
7.00362e+15
6.1562e+15
5.34612e+15
4.71874e+15
3.75491e+15
3.01185e+15
2.15409e+15
1.25762e+15
1.27935e+15
2.32363e+15
3.20928e+15
4.06606e+15
4.79306e+15
5.61196e+15
6.59328e+15
7.41378e+15
8.15803e+15
8.92137e+15
9.75883e+15
1.05782e+16
1.11264e+16
1.19265e+16
1.27046e+16
1.33896e+16
1.40506e+16
1.45737e+16
1.5406e+16
1.58612e+16
1.64404e+16
1.70126e+16
1.75826e+16
1.81708e+16
1.86765e+16
1.90258e+16
1.96664e+16
1.98052e+16
2.02706e+16
2.07181e+16
2.08761e+16
2.1253e+16
2.13241e+16
2.15893e+16
2.18394e+16
2.20192e+16
2.21873e+16
2.20468e+16
2.23221e+16
2.23605e+16
2.23209e+16
2.216e+16
2.22187e+16
2.21691e+16
2.18937e+16
2.18548e+16
2.16764e+16
2.11653e+16
2.10894e+16
2.08575e+16
2.0643e+16
2.03223e+16
1.99574e+16
1.94611e+16
1.88174e+16
1.84364e+16
1.77731e+16
1.7461e+16
1.6971e+16
1.64769e+16
1.58787e+16
1.52012e+16
1.47572e+16
1.3799e+16
1.30743e+16
1.25705e+16
1.18434e+16
1.11761e+16
1.04288e+16
9.52648e+15
8.89245e+15
8.16022e+15
7.3249e+15
6.58309e+15
5.70802e+15
4.85706e+15
4.03859e+15
3.12289e+15
2.28743e+15
1.34817e+15
1.43873e+15
2.48989e+15
3.336e+15
4.30525e+15
5.16787e+15
6.03683e+15
6.89308e+15
7.86056e+15
8.57082e+15
9.37638e+15
1.01754e+16
1.09913e+16
1.17312e+16
1.26735e+16
1.34531e+16
1.4063e+16
1.49079e+16
1.52996e+16
1.62437e+16
1.69106e+16
1.72994e+16
1.78979e+16
1.83538e+16
1.90972e+16
1.95968e+16
1.98954e+16
2.06268e+16
2.09215e+16
2.10992e+16
2.18353e+16
2.19422e+16
2.21203e+16
2.26946e+16
2.26894e+16
2.28106e+16
2.31057e+16
2.32847e+16
2.3424e+16
2.33553e+16
2.34249e+16
2.33503e+16
2.35503e+16
2.34857e+16
2.31127e+16
2.31389e+16
2.30444e+16
2.28004e+16
2.24918e+16
2.24637e+16
2.19816e+16
2.15819e+16
2.1245e+16
2.08002e+16
2.03027e+16
1.99019e+16
1.94698e+16
1.90028e+16
1.83453e+16
1.79316e+16
1.71394e+16
1.65275e+16
1.6066e+16
1.51917e+16
1.46153e+16
1.38811e+16
1.33178e+16
1.2437e+16
1.17112e+16
1.09364e+16
1.00431e+16
9.52523e+15
8.6067e+15
7.63442e+15
6.86553e+15
6.05362e+15
5.16913e+15
4.24335e+15
3.27516e+15
2.37922e+15
1.42205e+15
1.54312e+15
2.52458e+15
3.52552e+15
4.49089e+15
5.49119e+15
6.42718e+15
7.25848e+15
8.1137e+15
8.89104e+15
9.822e+15
1.08509e+16
1.14379e+16
1.24195e+16
1.32404e+16
1.39629e+16
1.46679e+16
1.55665e+16
1.61535e+16
1.68777e+16
1.76396e+16
1.82119e+16
1.88913e+16
1.95588e+16
1.99021e+16
2.03816e+16
2.10558e+16
2.15159e+16
2.21857e+16
2.22863e+16
2.28646e+16
2.31965e+16
2.34965e+16
2.37618e+16
2.38074e+16
2.40217e+16
2.41074e+16
2.46005e+16
2.46635e+16
2.47114e+16
2.47133e+16
2.48941e+16
2.46326e+16
2.46734e+16
2.42536e+16
2.42761e+16
2.41223e+16
2.38999e+16
2.35783e+16
2.36033e+16
2.3021e+16
2.27565e+16
2.21526e+16
2.20186e+16
2.15869e+16
2.10637e+16
2.06159e+16
1.99288e+16
1.91593e+16
1.85611e+16
1.79943e+16
1.77139e+16
1.66719e+16
1.60147e+16
1.53785e+16
1.4603e+16
1.38557e+16
1.31722e+16
1.21371e+16
1.15716e+16
1.08325e+16
9.98782e+15
8.96289e+15
8.03521e+15
7.14775e+15
6.29885e+15
5.33358e+15
4.40426e+15
3.46798e+15
2.49547e+15
1.51556e+15
1.61163e+15
2.66755e+15
3.69156e+15
4.74417e+15
5.63042e+15
6.63993e+15
7.47007e+15
8.34832e+15
9.31782e+15
1.0487e+16
1.1308e+16
1.19386e+16
1.29921e+16
1.3939e+16
1.47815e+16
1.54997e+16
1.62873e+16
1.7062e+16
1.7729e+16
1.8383e+16
1.92854e+16
1.96967e+16
2.03421e+16
2.08846e+16
2.16165e+16
2.20759e+16
2.2614e+16
2.31022e+16
2.34097e+16
2.42325e+16
2.41593e+16
2.45737e+16
2.47934e+16
2.47656e+16
2.5117e+16
2.52604e+16
2.56051e+16
2.56091e+16
2.58083e+16
2.58478e+16
2.57495e+16
2.58682e+16
2.572e+16
2.55364e+16
2.54e+16
2.49912e+16
2.51635e+16
2.4834e+16
2.45526e+16
2.40955e+16
2.36093e+16
2.33972e+16
2.29621e+16
2.24299e+16
2.20666e+16
2.13996e+16
2.08738e+16
2.01231e+16
1.95846e+16
1.9e+16
1.83072e+16
1.7446e+16
1.67976e+16
1.61975e+16
1.54331e+16
1.44057e+16
1.36105e+16
1.29648e+16
1.20217e+16
1.12344e+16
1.04437e+16
9.33924e+15
8.50569e+15
7.66367e+15
6.54752e+15
5.58635e+15
4.51304e+15
3.64525e+15
2.65245e+15
1.60954e+15
1.74041e+15
2.87661e+15
3.81356e+15
4.91412e+15
5.76337e+15
6.95631e+15
7.9754e+15
8.75454e+15
1.00052e+16
1.08755e+16
1.15804e+16
1.26344e+16
1.34109e+16
1.45667e+16
1.54905e+16
1.61816e+16
1.71171e+16
1.78474e+16
1.8476e+16
1.92831e+16
1.9806e+16
2.05127e+16
2.10348e+16
2.21258e+16
2.2689e+16
2.29841e+16
2.34137e+16
2.39571e+16
2.43384e+16
2.49432e+16
2.51547e+16
2.55936e+16
2.57791e+16
2.6183e+16
2.62706e+16
2.64674e+16
2.66536e+16
2.69515e+16
2.66927e+16
2.68941e+16
2.68183e+16
2.66771e+16
2.7024e+16
2.65265e+16
2.66209e+16
2.63092e+16
2.63658e+16
2.60511e+16
2.56375e+16
2.50603e+16
2.46726e+16
2.43805e+16
2.41091e+16
2.35445e+16
2.2868e+16
2.25011e+16
2.169e+16
2.11483e+16
2.03769e+16
1.99011e+16
1.90027e+16
1.82111e+16
1.73645e+16
1.6995e+16
1.61491e+16
1.52088e+16
1.43981e+16
1.3632e+16
1.2514e+16
1.17041e+16
1.08049e+16
9.77345e+15
8.80606e+15
7.91114e+15
6.89269e+15
5.80533e+15
4.84126e+15
3.79385e+15
2.71468e+15
1.67818e+15
1.72502e+15
2.97515e+15
4.15832e+15
5.04329e+15
6.0848e+15
7.27372e+15
8.21049e+15
9.29648e+15
1.02439e+16
1.12818e+16
1.21238e+16
1.31137e+16
1.41682e+16
1.50686e+16
1.6025e+16
1.68911e+16
1.78646e+16
1.86203e+16
1.94503e+16
2.02013e+16
2.0772e+16
2.14507e+16
2.18529e+16
2.28443e+16
2.3511e+16
2.39195e+16
2.44538e+16
2.49392e+16
2.53279e+16
2.59791e+16
2.63399e+16
2.67687e+16
2.68962e+16
2.69548e+16
2.73656e+16
2.76861e+16
2.7949e+16
2.78069e+16
2.79946e+16
2.7962e+16
2.78456e+16
2.79951e+16
2.80278e+16
2.79292e+16
2.77823e+16
2.73971e+16
2.71757e+16
2.6779e+16
2.65139e+16
2.61155e+16
2.59649e+16
2.54688e+16
2.51191e+16
2.45423e+16
2.38211e+16
2.3452e+16
2.26903e+16
2.21905e+16
2.13566e+16
2.07219e+16
2.00666e+16
1.92426e+16
1.83486e+16
1.76069e+16
1.69188e+16
1.59554e+16
1.51317e+16
1.4161e+16
1.31331e+16
1.22056e+16
1.14187e+16
1.01199e+16
9.21095e+15
8.07985e+15
7.14183e+15
6.06742e+15
5.05773e+15
3.95002e+15
2.84552e+15
1.7713e+15
1.84823e+15
3.15055e+15
4.21104e+15
5.23003e+15
6.4926e+15
7.56602e+15
8.55987e+15
9.61772e+15
1.04686e+16
1.1631e+16
1.25537e+16
1.35701e+16
1.47105e+16
1.55826e+16
1.66393e+16
1.76821e+16
1.84633e+16
1.94446e+16
2.01469e+16
2.07898e+16
2.15728e+16
2.22951e+16
2.29977e+16
2.3623e+16
2.43911e+16
2.52055e+16
2.54578e+16
2.59205e+16
2.64635e+16
2.70636e+16
2.74044e+16
2.75758e+16
2.8164e+16
2.85428e+16
2.8536e+16
2.89155e+16
2.89124e+16
2.92129e+16
2.91355e+16
2.91254e+16
2.90265e+16
2.91097e+16
2.9071e+16
2.9227e+16
2.87027e+16
2.86932e+16
2.8143e+16
2.78089e+16
2.75464e+16
2.7378e+16
2.70671e+16
2.63659e+16
2.5755e+16
2.52987e+16
2.47523e+16
2.41039e+16
2.3374e+16
2.2834e+16
2.2097e+16
2.14536e+16
2.07523e+16
1.99935e+16
1.89335e+16
1.84187e+16
1.74069e+16
1.64747e+16
1.55351e+16
1.47196e+16
1.35733e+16
1.27701e+16
1.1739e+16
1.05455e+16
9.60239e+15
8.46293e+15
7.48332e+15
6.31096e+15
5.13935e+15
4.06805e+15
3.01028e+15
1.86084e+15
1.9306e+15
3.23809e+15
4.43665e+15
5.60828e+15
6.64318e+15
7.85508e+15
8.86149e+15
9.90143e+15
1.09866e+16
1.22814e+16
1.31699e+16
1.43606e+16
1.53842e+16
1.61736e+16
1.72494e+16
1.80191e+16
1.91011e+16
2.00238e+16
2.08262e+16
2.15295e+16
2.23964e+16
2.31893e+16
2.4008e+16
2.47301e+16
2.52449e+16
2.58797e+16
2.66704e+16
2.69685e+16
2.73154e+16
2.76392e+16
2.84584e+16
2.86387e+16
2.89283e+16
2.9438e+16
2.97342e+16
2.99352e+16
2.99085e+16
3.02232e+16
3.01963e+16
3.04494e+16
3.02671e+16
3.01446e+16
2.98986e+16
3.00602e+16
2.98181e+16
2.96569e+16
2.91786e+16
2.87417e+16
2.87881e+16
2.82439e+16
2.78894e+16
2.73802e+16
2.6986e+16
2.61589e+16
2.57507e+16
2.52381e+16
2.41823e+16
2.35405e+16
2.31164e+16
2.22877e+16
2.15402e+16
2.08017e+16
1.97206e+16
1.91641e+16
1.82616e+16
1.72071e+16
1.61345e+16
1.51831e+16
1.4237e+16
1.3108e+16
1.20185e+16
1.10488e+16
1.01088e+16
8.79191e+15
7.87901e+15
6.57041e+15
5.42371e+15
4.28814e+15
3.11966e+15
1.80644e+15
1.99901e+15
3.26904e+15
4.58097e+15
5.66819e+15
6.87618e+15
8.10932e+15
9.29312e+15
1.03782e+16
1.14939e+16
1.25898e+16
1.35741e+16
1.46958e+16
1.57412e+16
1.68273e+16
1.78746e+16
1.89376e+16
1.98928e+16
2.04786e+16
2.14761e+16
2.23666e+16
2.33048e+16
2.39871e+16
2.47658e+16
2.55277e+16
2.60294e+16
2.6643e+16
2.73389e+16
2.79036e+16
2.82019e+16
2.88707e+16
2.92255e+16
2.96006e+16
3.00206e+16
3.03977e+16
3.07186e+16
3.11619e+16
3.1136e+16
3.11897e+16
3.12788e+16
3.11426e+16
3.11949e+16
3.13256e+16
3.14186e+16
3.11803e+16
3.11078e+16
3.09946e+16
3.03225e+16
2.98949e+16
2.96069e+16
2.91374e+16
2.88521e+16
2.84681e+16
2.78991e+16
2.73826e+16
2.65581e+16
2.62879e+16
2.53116e+16
2.46147e+16
2.38447e+16
2.3058e+16
2.21453e+16
2.1645e+16
2.04906e+16
1.96703e+16
1.87062e+16
1.78754e+16
1.6763e+16
1.56927e+16
1.46574e+16
1.36411e+16
1.2521e+16
1.14203e+16
1.01553e+16
9.04622e+15
8.00667e+15
6.7303e+15
5.64919e+15
4.43883e+15
3.2239e+15
1.87286e+15
2.05048e+15
3.37566e+15
4.65479e+15
5.92737e+15
7.1342e+15
8.36661e+15
9.54892e+15
1.07644e+16
1.17603e+16
1.296e+16
1.42563e+16
1.52955e+16
1.63524e+16
1.73691e+16
1.84167e+16
1.93846e+16
2.03627e+16
2.1059e+16
2.23349e+16
2.30563e+16
2.35835e+16
2.46401e+16
2.53985e+16
2.61145e+16
2.68974e+16
2.75375e+16
2.83225e+16
2.88428e+16
2.93109e+16
2.97165e+16
3.03861e+16
3.0993e+16
3.11935e+16
3.13307e+16
3.18746e+16
3.18405e+16
3.22518e+16
3.24161e+16
3.24573e+16
3.26115e+16
3.2441e+16
3.24894e+16
3.21884e+16
3.2401e+16
3.21254e+16
3.17004e+16
3.1469e+16
3.10987e+16
3.09129e+16
3.0449e+16
2.98392e+16
2.93905e+16
2.88133e+16
2.81194e+16
2.76586e+16
2.69754e+16
2.62668e+16
2.52662e+16
2.46036e+16
2.36872e+16
2.26378e+16
2.20722e+16
2.11676e+16
2.03049e+16
1.94038e+16
1.84334e+16
1.75293e+16
1.63717e+16
1.5375e+16
1.40976e+16
1.29359e+16
1.18343e+16
1.04487e+16
9.47535e+15
8.2212e+15
6.9838e+15
5.77075e+15
4.57417e+15
3.33728e+15
1.98244e+15
2.12087e+15
3.42697e+15
4.80751e+15
6.15963e+15
7.38708e+15
8.52735e+15
9.77212e+15
1.09912e+16
1.23104e+16
1.32665e+16
1.44354e+16
1.56578e+16
1.67272e+16
1.79227e+16
1.90421e+16
1.98896e+16
2.09737e+16
2.18197e+16
2.27039e+16
2.37639e+16
2.47306e+16
2.54039e+16
2.63272e+16
2.70018e+16
2.80327e+16
2.83795e+16
2.91529e+16
2.97142e+16
3.00741e+16
3.06486e+16
3.11406e+16
3.15664e+16
3.21601e+16
3.25611e+16
3.24213e+16
3.29715e+16
3.29817e+16
3.34911e+16
3.34665e+16
3.34944e+16
3.35472e+16
3.35309e+16
3.33324e+16
3.31965e+16
3.32613e+16
3.31531e+16
3.22307e+16
3.2288e+16
3.16884e+16
3.14167e+16
3.08284e+16
3.0511e+16
2.96646e+16
2.89656e+16
2.83827e+16
2.77879e+16
2.70216e+16
2.62778e+16
2.54694e+16
2.45622e+16
2.37002e+16
2.28641e+16
2.19411e+16
2.07666e+16
1.98624e+16
1.88779e+16
1.78207e+16
1.67776e+16
1.55723e+16
1.43777e+16
1.30574e+16
1.22419e+16
1.09013e+16
9.72435e+15
8.48654e+15
7.28245e+15
6.04295e+15
4.7327e+15
3.37718e+15
2.05504e+15
2.16091e+15
3.53883e+15
4.91474e+15
6.31505e+15
7.56938e+15
8.75274e+15
1.00932e+16
1.13449e+16
1.2618e+16
1.38157e+16
1.51365e+16
1.61043e+16
1.74238e+16
1.83708e+16
1.93103e+16
2.0561e+16
2.14435e+16
2.25716e+16
2.34395e+16
2.45889e+16
2.54194e+16
2.60481e+16
2.69505e+16
2.79333e+16
2.84982e+16
2.94257e+16
3.02021e+16
3.0578e+16
3.12483e+16
3.15793e+16
3.22349e+16
3.29336e+16
3.31595e+16
3.34257e+16
3.34434e+16
3.39541e+16
3.41965e+16
3.41759e+16
3.42089e+16
3.46642e+16
3.47558e+16
3.44243e+16
3.42631e+16
3.45595e+16
3.42104e+16
3.39698e+16
3.29924e+16
3.30898e+16
3.287e+16
3.23403e+16
3.17785e+16
3.13629e+16
3.06514e+16
2.9938e+16
2.91069e+16
2.86747e+16
2.78288e+16
2.69565e+16
2.61801e+16
2.54291e+16
2.44733e+16
2.33612e+16
2.24896e+16
2.14993e+16
2.03317e+16
1.96137e+16
1.86098e+16
1.71444e+16
1.60606e+16
1.49049e+16
1.36722e+16
1.24945e+16
1.12713e+16
9.92653e+15
8.80582e+15
7.44033e+15
6.21039e+15
4.80528e+15
3.4756e+15
2.06656e+15
2.21345e+15
3.65645e+15
5.09706e+15
6.46953e+15
7.75541e+15
9.05193e+15
1.04535e+16
1.17872e+16
1.2898e+16
1.43727e+16
1.55338e+16
1.65701e+16
1.78049e+16
1.89014e+16
1.99323e+16
2.11065e+16
2.20949e+16
2.29891e+16
2.41851e+16
2.51259e+16
2.60209e+16
2.68742e+16
2.7801e+16
2.89118e+16
2.94155e+16
2.99663e+16
3.0956e+16
3.14048e+16
3.18856e+16
3.24786e+16
3.29601e+16
3.33394e+16
3.39777e+16
3.42352e+16
3.47758e+16
3.50088e+16
3.53797e+16
3.53878e+16
3.5416e+16
3.57645e+16
3.57272e+16
3.54416e+16
3.54786e+16
3.53181e+16
3.4891e+16
3.459e+16
3.44064e+16
3.39647e+16
3.37906e+16
3.3165e+16
3.28506e+16
3.20555e+16
3.14039e+16
3.09015e+16
3.02337e+16
2.91915e+16
2.86603e+16
2.78618e+16
2.70208e+16
2.62154e+16
2.50266e+16
2.40905e+16
2.32678e+16
2.21664e+16
2.12328e+16
2.0055e+16
1.86818e+16
1.77309e+16
1.64351e+16
1.51951e+16
1.40081e+16
1.29369e+16
1.15993e+16
1.03977e+16
9.16709e+15
7.61816e+15
6.41327e+15
5.08109e+15
3.65942e+15
2.14209e+15
2.25332e+15
3.77497e+15
5.33896e+15
6.62146e+15
8.03146e+15
9.47355e+15
1.07446e+16
1.2256e+16
1.34111e+16
1.46071e+16
1.59405e+16
1.71107e+16
1.8478e+16
1.93052e+16
2.05487e+16
2.17551e+16
2.27139e+16
2.3796e+16
2.48286e+16
2.57832e+16
2.67695e+16
2.76396e+16
2.88293e+16
2.94557e+16
3.01617e+16
3.09854e+16
3.19585e+16
3.228e+16
3.26939e+16
3.36837e+16
3.40392e+16
3.45137e+16
3.49185e+16
3.53209e+16
3.57448e+16
3.62702e+16
3.64337e+16
3.63904e+16
3.63791e+16
3.62528e+16
3.6519e+16
3.66087e+16
3.64026e+16
3.60547e+16
3.5814e+16
3.55579e+16
3.52862e+16
3.51119e+16
3.44884e+16
3.40142e+16
3.33349e+16
3.29238e+16
3.22579e+16
3.16017e+16
3.10672e+16
3.02997e+16
2.93445e+16
2.84601e+16
2.76403e+16
2.66566e+16
2.58087e+16
2.48477e+16
2.39113e+16
2.29741e+16
2.17086e+16
2.06264e+16
1.93232e+16
1.8198e+16
1.67303e+16
1.55261e+16
1.42582e+16
1.32176e+16
1.20285e+16
1.0661e+16
9.2996e+15
7.89753e+15
6.63323e+15
5.18195e+15
3.71323e+15
2.21089e+15
2.28637e+15
3.93236e+15
5.40236e+15
6.88384e+15
8.29836e+15
9.57722e+15
1.09564e+16
1.24491e+16
1.36914e+16
1.49532e+16
1.62481e+16
1.77571e+16
1.88223e+16
1.99859e+16
2.12453e+16
2.22829e+16
2.33284e+16
2.43826e+16
2.5444e+16
2.65414e+16
2.72563e+16
2.84148e+16
2.9136e+16
3.02532e+16
3.09431e+16
3.15609e+16
3.25022e+16
3.30883e+16
3.38771e+16
3.45007e+16
3.5166e+16
3.54086e+16
3.57207e+16
3.65696e+16
3.65873e+16
3.69798e+16
3.70873e+16
3.72488e+16
3.73415e+16
3.70461e+16
3.7405e+16
3.71142e+16
3.71278e+16
3.70411e+16
3.68558e+16
3.66107e+16
3.60148e+16
3.5604e+16
3.54512e+16
3.49101e+16
3.45347e+16
3.37741e+16
3.31848e+16
3.24346e+16
3.18196e+16
3.09457e+16
2.99061e+16
2.90471e+16
2.83632e+16
2.73945e+16
2.64896e+16
2.52268e+16
2.43649e+16
2.35881e+16
2.21689e+16
2.10223e+16
2.02088e+16