/*--------------------------------*- C++ -*----------------------------------*\
  =========                 |
  \\      /  F ield         | OpenFOAM: The Open Source CFD Toolbox
   \\    /   O peration     | Website:  https://openfoam.org
    \\  /    A nd           | Version:  6
     \\/     M anipulation  |
\*---------------------------------------------------------------------------*/
FoamFile
{
    version     2.0;
    format      ascii;
    class       volScalarField;
    location    "600";
    object      dnp3_s;
}
// * * * * * * * * * * * * * * * * * * * * * * * * * * * * * * * * * * * * * //

dimensions      [0 -3 -1 0 0 0 0];

internalField   nonuniform List<scalar> 
6400
(
1.03956e+14
1.68788e+14
2.28348e+14
2.89038e+14
3.66986e+14
4.27562e+14
4.71809e+14
5.42097e+14
5.95281e+14
6.61774e+14
6.98391e+14
7.8841e+14
8.14909e+14
8.5833e+14
9.33667e+14
9.73877e+14
1.05801e+15
1.06258e+15
1.1435e+15
1.15926e+15
1.2448e+15
1.26476e+15
1.26553e+15
1.30256e+15
1.36666e+15
1.36375e+15
1.42044e+15
1.43105e+15
1.47667e+15
1.50857e+15
1.61716e+15
1.54363e+15
1.57841e+15
1.60248e+15
1.63576e+15
1.58472e+15
1.6634e+15
1.61984e+15
1.62978e+15
1.59841e+15
1.6886e+15
1.61505e+15
1.66996e+15
1.5982e+15
1.59144e+15
1.58014e+15
1.60609e+15
1.59214e+15
1.52313e+15
1.56972e+15
1.49752e+15
1.55301e+15
1.45684e+15
1.43384e+15
1.39117e+15
1.36688e+15
1.32251e+15
1.30613e+15
1.23775e+15
1.20188e+15
1.15137e+15
1.11311e+15
1.06636e+15
1.0173e+15
9.83454e+14
9.09336e+14
8.95258e+14
7.95524e+14
7.93629e+14
7.15557e+14
6.62455e+14
6.03097e+14
5.2741e+14
4.83189e+14
4.15118e+14
3.88609e+14
3.00029e+14
2.36643e+14
1.83294e+14
1.04626e+14
1.57771e+14
2.47127e+14
3.642e+14
4.7684e+14
5.60217e+14
6.6562e+14
7.32753e+14
8.37649e+14
9.65189e+14
9.98673e+14
1.08979e+15
1.1842e+15
1.31028e+15
1.32817e+15
1.43776e+15
1.55772e+15
1.61358e+15
1.69992e+15
1.73248e+15
1.81882e+15
1.85925e+15
1.96933e+15
1.97088e+15
2.0218e+15
2.12635e+15
2.15005e+15
2.21314e+15
2.22354e+15
2.35515e+15
2.3245e+15
2.38602e+15
2.35293e+15
2.50822e+15
2.41384e+15
2.4667e+15
2.47209e+15
2.51217e+15
2.50814e+15
2.56328e+15
2.53926e+15
2.57445e+15
2.58388e+15
2.55904e+15
2.50761e+15
2.46063e+15
2.44505e+15
2.48976e+15
2.402e+15
2.4141e+15
2.38654e+15
2.36223e+15
2.33351e+15
2.30119e+15
2.22123e+15
2.15102e+15
2.08974e+15
2.03803e+15
1.97622e+15
1.95435e+15
1.853e+15
1.77684e+15
1.70867e+15
1.63272e+15
1.53466e+15
1.51816e+15
1.44877e+15
1.34685e+15
1.2584e+15
1.16683e+15
1.13167e+15
1.0219e+15
9.17203e+14
8.05374e+14
7.2885e+14
6.56436e+14
5.48442e+14
4.58193e+14
3.53137e+14
2.94731e+14
1.5308e+14
2.14774e+14
3.48202e+14
4.69393e+14
6.36333e+14
7.18706e+14
8.49941e+14
9.69649e+14
1.1029e+15
1.24893e+15
1.31434e+15
1.42113e+15
1.53971e+15
1.70038e+15
1.75942e+15
1.94632e+15
2.05779e+15
2.12228e+15
2.21258e+15
2.32016e+15
2.43999e+15
2.46382e+15
2.62627e+15
2.60455e+15
2.68926e+15
2.8125e+15
2.8659e+15
2.95061e+15
3.09797e+15
3.08864e+15
3.08125e+15
3.13972e+15
3.23781e+15
3.24966e+15
3.27245e+15
3.30378e+15
3.34883e+15
3.37468e+15
3.39191e+15
3.29224e+15
3.33656e+15
3.31636e+15
3.36955e+15
3.36711e+15
3.37292e+15
3.29468e+15
3.24422e+15
3.25402e+15
3.20294e+15
3.15107e+15
3.15634e+15
3.14233e+15
3.06924e+15
3.03829e+15
2.94729e+15
2.85636e+15
2.7932e+15
2.66502e+15
2.6691e+15
2.6023e+15
2.48802e+15
2.33537e+15
2.30943e+15
2.20703e+15
2.04068e+15
1.98219e+15
1.92059e+15
1.78327e+15
1.67652e+15
1.5375e+15
1.49225e+15
1.3795e+15
1.26745e+15
1.07803e+15
1.03438e+15
8.64866e+14
7.33471e+14
6.36633e+14
4.77365e+14
3.6589e+14
2.16672e+14
2.60635e+14
4.21636e+14
6.15415e+14
7.84538e+14
9.35494e+14
1.07845e+15
1.23077e+15
1.36812e+15
1.57872e+15
1.69722e+15
1.79997e+15
1.96543e+15
2.05713e+15
2.27747e+15
2.38406e+15
2.52398e+15
2.64647e+15
2.74989e+15
2.9301e+15
2.99139e+15
3.17325e+15
3.25087e+15
3.28289e+15
3.42208e+15
3.50372e+15
3.64161e+15
3.58354e+15
3.70828e+15
3.81252e+15
3.82237e+15
3.97968e+15
3.99889e+15
3.98904e+15
4.10271e+15
4.09562e+15
4.14087e+15
4.18892e+15
4.20232e+15
4.14982e+15
4.1474e+15
4.18315e+15
4.21866e+15
4.18855e+15
4.08663e+15
4.09754e+15
4.02086e+15
3.98006e+15
4.01209e+15
3.96324e+15
3.9116e+15
3.86922e+15
3.82012e+15
3.74941e+15
3.64733e+15
3.5675e+15
3.48201e+15
3.40565e+15
3.28832e+15
3.17931e+15
3.10953e+15
2.95458e+15
2.84568e+15
2.7025e+15
2.58785e+15
2.51392e+15
2.35248e+15
2.2271e+15
2.14205e+15
1.9585e+15
1.83617e+15
1.70916e+15
1.56056e+15
1.38918e+15
1.24574e+15
1.10057e+15
9.12335e+14
7.7937e+14
6.06618e+14
4.26409e+14
2.65439e+14
3.06437e+14
5.60403e+14
7.08123e+14
9.1724e+14
1.09246e+15
1.30722e+15
1.47812e+15
1.66131e+15
1.83745e+15
2.02759e+15
2.21322e+15
2.31996e+15
2.46819e+15
2.70955e+15
2.91069e+15
3.04871e+15
3.19779e+15
3.34367e+15
3.42251e+15
3.58612e+15
3.68407e+15
3.83053e+15
3.95259e+15
4.07425e+15
4.22326e+15
4.32898e+15
4.39157e+15
4.47077e+15
4.53343e+15
4.65978e+15
4.66539e+15
4.68933e+15
4.80344e+15
4.75332e+15
4.85741e+15
4.87801e+15
4.92032e+15
5.05387e+15
5.03135e+15
5.07754e+15
5.01686e+15
5.04683e+15
5.03582e+15
4.94484e+15
4.79871e+15
4.86402e+15
4.85998e+15
4.75258e+15
4.80706e+15
4.67392e+15
4.652e+15
4.46722e+15
4.45305e+15
4.50441e+15
4.34689e+15
4.21811e+15
4.11783e+15
3.9555e+15
3.81388e+15
3.73104e+15
3.59035e+15
3.3569e+15
3.23048e+15
3.08967e+15
2.97101e+15
2.83196e+15
2.69754e+15
2.60203e+15
2.34e+15
2.20892e+15
2.00864e+15
1.81622e+15
1.68994e+15
1.44781e+15
1.24921e+15
1.09197e+15
9.1471e+14
7.34725e+14
5.00588e+14
3.05549e+14
3.69558e+14
6.28837e+14
8.58294e+14
1.09844e+15
1.26195e+15
1.49241e+15
1.70677e+15
1.94725e+15
2.14215e+15
2.34547e+15
2.53528e+15
2.7053e+15
2.91068e+15
3.16998e+15
3.37185e+15
3.45609e+15
3.70493e+15
3.81965e+15
3.93938e+15
4.19884e+15
4.37046e+15
4.47722e+15
4.56557e+15
4.73897e+15
4.85513e+15
5.01221e+15
5.0822e+15
5.19031e+15
5.28928e+15
5.39764e+15
5.36398e+15
5.46872e+15
5.59531e+15
5.64673e+15
5.70093e+15
5.74213e+15
5.79303e+15
5.88281e+15
5.96536e+15
5.79639e+15
5.84791e+15
5.85343e+15
5.7666e+15
5.77765e+15
5.73294e+15
5.73728e+15
5.6491e+15
5.58571e+15
5.54962e+15
5.45907e+15
5.39609e+15
5.28437e+15
5.14322e+15
5.11032e+15
5.00074e+15
4.89532e+15
4.78722e+15
4.59632e+15
4.44169e+15
4.35961e+15
4.21884e+15
3.98235e+15
3.84836e+15
3.60235e+15
3.46585e+15
3.32323e+15
3.18201e+15
2.93919e+15
2.73375e+15
2.56937e+15
2.34963e+15
2.12523e+15
1.91896e+15
1.68854e+15
1.46384e+15
1.29066e+15
1.07319e+15
8.56875e+14
5.82824e+14
3.65749e+14
4.11049e+14
6.86838e+14
9.74879e+14
1.23842e+15
1.43136e+15
1.68188e+15
1.92739e+15
2.19316e+15
2.41173e+15
2.68964e+15
2.8795e+15
3.0983e+15
3.34046e+15
3.56096e+15
3.73382e+15
3.98792e+15
4.11115e+15
4.37031e+15
4.61949e+15
4.7927e+15
4.91079e+15
5.11601e+15
5.19114e+15
5.29661e+15
5.47533e+15
5.69128e+15
5.91017e+15
5.97424e+15
5.90599e+15
6.11687e+15
6.21238e+15
6.28166e+15
6.33422e+15
6.37185e+15
6.48481e+15
6.52605e+15
6.68134e+15
6.66554e+15
6.57396e+15
6.62708e+15
6.64304e+15
6.67215e+15
6.63183e+15
6.63632e+15
6.52182e+15
6.48615e+15
6.49048e+15
6.43927e+15
6.31563e+15
6.22978e+15
6.0795e+15
5.9955e+15
6.0574e+15
5.7588e+15
5.61694e+15
5.65586e+15
5.50306e+15
5.25128e+15
5.0098e+15
4.9864e+15
4.82873e+15
4.61575e+15
4.34428e+15
4.13445e+15
3.96e+15
3.7398e+15
3.69076e+15
3.42468e+15
3.12402e+15
2.96741e+15
2.65817e+15
2.43357e+15
2.19276e+15
1.94761e+15
1.65245e+15
1.45618e+15
1.17562e+15
9.92395e+14
7.12568e+14
4.40399e+14
4.63036e+14
7.94569e+14
1.11084e+15
1.38745e+15
1.62696e+15
1.93252e+15
2.20787e+15
2.41915e+15
2.75398e+15
3.01573e+15
3.23089e+15
3.49048e+15
3.80486e+15
3.95046e+15
4.19734e+15
4.49053e+15
4.71835e+15
4.94226e+15
5.10274e+15
5.34911e+15
5.4791e+15
5.65612e+15
5.88312e+15
6.01264e+15
6.17444e+15
6.31594e+15
6.57138e+15
6.52889e+15
6.82806e+15
6.96533e+15
6.92465e+15
6.99827e+15
7.06548e+15
7.14777e+15
7.28127e+15
7.252e+15
7.38143e+15
7.4473e+15
7.48349e+15
7.4776e+15
7.49516e+15
7.42985e+15
7.39036e+15
7.53202e+15
7.33476e+15
7.18334e+15
7.26852e+15
7.1582e+15
7.1057e+15
6.89791e+15
6.87049e+15
6.83301e+15
6.57458e+15
6.45538e+15
6.31388e+15
6.22482e+15
6.08203e+15
6.00676e+15
5.77796e+15
5.49201e+15
5.31597e+15
5.07692e+15
4.85941e+15
4.5839e+15
4.47007e+15
4.2392e+15
4.02584e+15
3.83135e+15
3.60286e+15
3.29104e+15
3.00889e+15
2.72034e+15
2.49229e+15
2.15955e+15
1.91452e+15
1.61521e+15
1.32881e+15
1.11407e+15
8.09834e+14
4.75697e+14
5.0192e+14
8.59678e+14
1.24881e+15
1.54246e+15
1.86783e+15
2.09051e+15
2.44455e+15
2.75671e+15
3.00653e+15
3.31405e+15
3.64986e+15
3.80874e+15
4.17468e+15
4.512e+15
4.78972e+15
4.84473e+15
5.16046e+15
5.56666e+15
5.69846e+15
5.89793e+15
6.13515e+15
6.29162e+15
6.40479e+15
6.723e+15
6.81613e+15
6.99507e+15
7.23517e+15
7.29253e+15
7.41447e+15
7.56537e+15
7.73418e+15
7.79618e+15
8.00258e+15
8.01868e+15
8.01894e+15
8.10319e+15
8.19808e+15
8.28982e+15
8.34882e+15
8.31222e+15
8.27366e+15
8.28068e+15
8.16359e+15
8.13566e+15
8.11636e+15
7.96902e+15
7.93376e+15
7.82215e+15
7.83862e+15
7.74032e+15
7.57332e+15
7.41906e+15
7.26238e+15
7.18979e+15
7.02201e+15
6.89238e+15
6.77963e+15
6.59456e+15
6.29865e+15
6.14702e+15
5.81843e+15
5.73082e+15
5.49299e+15
5.20905e+15
4.84306e+15
4.63121e+15
4.4755e+15
4.16428e+15
3.93402e+15
3.60708e+15
3.3816e+15
3.10815e+15
2.75121e+15
2.40766e+15
2.1183e+15
1.82216e+15
1.49466e+15
1.21751e+15
8.49389e+14
5.33558e+14
5.6444e+14
9.10915e+14
1.32737e+15
1.67776e+15
2.03711e+15
2.32919e+15
2.67776e+15
2.96704e+15
3.32005e+15
3.65985e+15
4.02699e+15
4.27924e+15
4.49611e+15
4.90775e+15
5.1962e+15
5.47156e+15
5.74657e+15
6.01037e+15
6.26339e+15
6.50308e+15
6.79197e+15
6.90586e+15
7.13027e+15
7.3934e+15
7.59464e+15
7.83898e+15
7.95673e+15
8.11847e+15
8.27846e+15
8.38584e+15
8.53689e+15
8.63885e+15
8.75893e+15
8.78283e+15
8.93833e+15
8.88593e+15
9.01876e+15
9.00874e+15
8.9899e+15
9.06801e+15
9.15577e+15
9.06378e+15
9.05211e+15
8.95495e+15
8.93466e+15
8.80818e+15
8.74303e+15
8.6388e+15
8.5896e+15
8.47035e+15
8.37366e+15
8.23071e+15
8.0875e+15
7.94594e+15
7.69221e+15
7.67496e+15
7.39371e+15
7.07958e+15
6.96146e+15
6.70597e+15
6.42353e+15
6.10676e+15
5.83593e+15
5.60367e+15
5.39263e+15
5.19485e+15
4.88579e+15
4.61653e+15
4.19322e+15
3.98231e+15
3.68111e+15
3.34263e+15
2.90832e+15
2.62529e+15
2.28951e+15
1.99752e+15
1.64102e+15
1.29445e+15
9.60104e+14
5.55757e+14
6.3847e+14
1.001e+15
1.43914e+15
1.80613e+15
2.12669e+15
2.53563e+15
2.91209e+15
3.22601e+15
3.65081e+15
3.99274e+15
4.46495e+15
4.66159e+15
4.86033e+15
5.26001e+15
5.61482e+15
5.88529e+15
6.20923e+15
6.48398e+15
6.79001e+15
7.14984e+15
7.37218e+15
7.63733e+15
7.77749e+15
7.83686e+15
8.17242e+15
8.44196e+15
8.69316e+15
8.76007e+15
9.04086e+15
9.08799e+15
9.20069e+15
9.26904e+15
9.39056e+15
9.55447e+15
9.70258e+15
9.73356e+15
9.7508e+15
9.90676e+15
9.82375e+15
1.00498e+16
9.9699e+15
9.86933e+15
9.93004e+15
9.78436e+15
9.71838e+15
9.50646e+15
9.5587e+15
9.48008e+15
9.33651e+15
9.25623e+15
9.15598e+15
8.93069e+15
8.74871e+15
8.56498e+15
8.43974e+15
8.28765e+15
7.862e+15
7.78281e+15
7.52918e+15
7.29093e+15
7.06729e+15
6.65078e+15
6.45615e+15
6.13587e+15
5.87362e+15
5.70016e+15
5.30817e+15
4.92823e+15
4.67941e+15
4.28868e+15
3.99444e+15
3.61525e+15
3.22594e+15
2.88851e+15
2.54026e+15
2.17979e+15
1.74663e+15
1.42504e+15
1.02297e+15
5.99576e+14
7.3106e+14
1.10665e+15
1.52074e+15
1.95969e+15
2.35366e+15
2.72198e+15
3.14538e+15
3.49408e+15
3.84169e+15
4.2694e+15
4.68065e+15
5.03961e+15
5.25066e+15
5.64807e+15
6.01745e+15
6.42141e+15
6.80209e+15
7.06414e+15
7.36392e+15
7.64698e+15
7.88436e+15
8.26607e+15
8.31325e+15
8.62744e+15
8.92573e+15
9.11969e+15
9.3679e+15
9.5031e+15
9.56443e+15
9.85529e+15
1.00348e+16
1.01763e+16
1.03785e+16
1.03925e+16
1.04052e+16
1.04854e+16
1.07188e+16
1.07047e+16
1.05579e+16
1.06671e+16
1.0676e+16
1.07703e+16
1.06489e+16
1.05473e+16
1.03953e+16
1.0401e+16
1.0298e+16
1.01315e+16
1.0106e+16
9.95549e+15
9.86525e+15
9.67687e+15
9.45225e+15
9.37079e+15
9.17534e+15
8.88273e+15
8.70865e+15
8.37995e+15
8.09338e+15
7.92689e+15
7.70067e+15
7.32908e+15
7.04163e+15
6.70917e+15
6.39482e+15
6.0463e+15
5.75173e+15
5.33533e+15
4.96652e+15
4.64999e+15
4.27156e+15
3.96438e+15
3.49666e+15
3.11156e+15
2.71992e+15
2.32398e+15
1.96089e+15
1.53367e+15
1.09473e+15
6.5846e+14
7.57672e+14
1.20335e+15
1.66348e+15
2.07567e+15
2.5171e+15
2.95462e+15
3.36195e+15
3.88307e+15
4.14795e+15
4.59102e+15
5.01993e+15
5.4122e+15
5.79071e+15
6.15714e+15
6.44531e+15
6.90441e+15
7.18515e+15
7.48901e+15
7.81461e+15
8.12451e+15
8.44722e+15
8.92981e+15
9.06078e+15
9.33248e+15
9.72215e+15
9.87573e+15
1.00966e+16
1.02422e+16
1.04376e+16
1.06338e+16
1.08058e+16
1.08455e+16
1.09796e+16
1.13133e+16
1.12229e+16
1.14027e+16
1.14071e+16
1.13803e+16
1.14543e+16
1.14318e+16
1.15604e+16
1.14105e+16
1.15028e+16
1.14108e+16
1.14178e+16
1.12714e+16
1.11463e+16
1.10816e+16
1.09395e+16
1.08142e+16
1.06737e+16
1.04565e+16
1.03126e+16
1.00172e+16
9.83216e+15
9.61725e+15
9.36558e+15
9.06058e+15
8.75811e+15
8.47469e+15
8.20107e+15
8.04073e+15
7.56722e+15
7.3138e+15
6.89465e+15
6.54371e+15
6.1509e+15
5.67068e+15
5.42913e+15
4.98031e+15
4.57256e+15
4.20929e+15
3.76795e+15
3.27481e+15
2.93414e+15
2.44732e+15
2.07871e+15
1.64167e+15
1.2004e+15
6.86476e+14
8.01698e+14
1.32565e+15
1.78373e+15
2.2162e+15
2.7323e+15
3.19154e+15
3.5832e+15
4.04183e+15
4.37483e+15
4.94241e+15
5.40104e+15
5.7874e+15
6.25538e+15
6.64649e+15
6.91969e+15
7.28071e+15
7.83923e+15
8.05265e+15
8.54613e+15
8.78165e+15
9.2378e+15
9.36759e+15
9.68229e+15
9.94584e+15
1.03245e+16
1.07176e+16
1.07945e+16
1.10602e+16
1.10753e+16
1.13989e+16
1.14611e+16
1.16879e+16
1.19027e+16
1.20416e+16
1.19557e+16
1.21948e+16
1.22675e+16
1.22664e+16
1.23714e+16
1.23247e+16
1.24181e+16
1.23645e+16
1.2293e+16
1.21935e+16
1.20424e+16
1.19152e+16
1.18799e+16
1.17807e+16
1.17265e+16
1.1547e+16
1.13848e+16
1.12795e+16
1.09257e+16
1.07592e+16
1.05327e+16
1.02781e+16
9.98858e+15
9.80857e+15
9.39108e+15
9.07229e+15
8.83131e+15
8.51449e+15
8.13164e+15
7.78611e+15
7.32846e+15
6.91752e+15
6.55966e+15
6.20655e+15
5.83087e+15
5.39325e+15
4.83923e+15
4.5017e+15
4.05962e+15
3.55018e+15
3.05326e+15
2.68735e+15
2.15285e+15
1.72617e+15
1.24887e+15
7.49624e+14
7.89509e+14
1.37542e+15
1.86933e+15
2.42389e+15
2.90163e+15
3.40265e+15
3.89808e+15
4.32823e+15
4.71899e+15
5.26109e+15
5.61043e+15
6.15384e+15
6.66998e+15
7.07095e+15
7.4235e+15
7.81719e+15
8.2685e+15
8.57757e+15
8.92196e+15
9.34864e+15
9.78157e+15
9.98347e+15
1.02851e+16
1.05887e+16
1.10288e+16
1.1157e+16
1.14805e+16
1.18292e+16
1.19368e+16
1.21316e+16
1.24411e+16
1.249e+16
1.26957e+16
1.2829e+16
1.29721e+16
1.29129e+16
1.30936e+16
1.30341e+16
1.32496e+16
1.31724e+16
1.31401e+16
1.31195e+16
1.31765e+16
1.29174e+16
1.29321e+16
1.27676e+16
1.26473e+16
1.25275e+16
1.24623e+16
1.23309e+16
1.21777e+16
1.19297e+16
1.17046e+16
1.15133e+16
1.12836e+16
1.09006e+16
1.05225e+16
1.03103e+16
9.97656e+15
9.6794e+15
9.3649e+15
8.97519e+15
8.59786e+15
8.18151e+15
7.7714e+15
7.36671e+15
7.00389e+15
6.61201e+15
6.21997e+15
5.62355e+15
5.28979e+15
4.80305e+15
4.25366e+15
3.83528e+15
3.353e+15
2.89984e+15
2.33605e+15
1.87143e+15
1.35341e+15
8.06071e+14
8.41588e+14
1.46017e+15
1.9798e+15
2.50842e+15
3.00871e+15
3.60148e+15
4.13667e+15
4.64431e+15
5.02031e+15
5.49562e+15
6.02793e+15
6.52879e+15
6.96342e+15
7.44761e+15
7.87589e+15
8.39684e+15
8.74112e+15
9.0837e+15
9.52572e+15
9.84522e+15
1.03499e+16
1.05952e+16
1.09834e+16
1.1394e+16
1.17214e+16
1.19243e+16
1.23805e+16
1.22216e+16
1.26003e+16
1.28417e+16
1.29668e+16
1.32883e+16
1.3339e+16
1.36773e+16
1.36265e+16
1.37855e+16
1.39478e+16
1.37671e+16
1.39656e+16
1.39015e+16
1.38237e+16
1.3968e+16
1.3907e+16
1.38091e+16
1.38288e+16
1.36934e+16
1.35097e+16
1.32471e+16
1.32566e+16
1.31163e+16
1.28007e+16
1.27508e+16
1.24209e+16
1.20672e+16
1.18195e+16
1.15748e+16
1.11005e+16
1.10297e+16
1.06135e+16
1.02093e+16
9.90717e+15
9.61694e+15
9.28927e+15
8.63281e+15
8.35275e+15
7.84238e+15
7.41488e+15
6.96151e+15
6.48455e+15
6.07114e+15
5.50987e+15
5.04517e+15
4.62476e+15
4.06517e+15
3.53025e+15
3.11596e+15
2.47951e+15
1.98884e+15
1.42243e+15
8.30453e+14
8.44805e+14
1.53438e+15
2.11921e+15
2.68497e+15
3.16504e+15
3.70579e+15
4.35379e+15
4.8956e+15
5.38705e+15
5.89112e+15
6.44412e+15
6.98515e+15
7.3472e+15
7.87553e+15
8.3893e+15
8.84169e+15
9.27817e+15
9.6236e+15
1.01732e+16
1.04738e+16
1.08562e+16
1.1234e+16
1.16104e+16
1.19989e+16
1.23328e+16
1.25634e+16
1.29865e+16
1.30781e+16
1.33854e+16
1.36809e+16
1.37853e+16
1.40342e+16
1.40811e+16
1.42562e+16
1.44214e+16
1.45401e+16
1.46511e+16
1.45584e+16
1.47401e+16
1.47655e+16
1.47393e+16
1.46331e+16
1.46718e+16
1.46391e+16
1.44572e+16
1.44315e+16
1.43137e+16
1.39762e+16
1.39261e+16
1.3773e+16
1.36313e+16
1.34196e+16
1.31786e+16
1.28509e+16
1.24258e+16
1.21742e+16
1.17362e+16
1.15302e+16
1.12066e+16
1.08804e+16
1.04853e+16
1.00379e+16
9.74471e+15
9.11199e+15
8.63348e+15
8.30076e+15
7.82065e+15
7.38003e+15
6.88655e+15
6.2907e+15
5.87202e+15
5.3885e+15
4.83691e+15
4.34707e+15
3.76922e+15
3.2073e+15
2.66683e+15
2.06216e+15
1.51048e+15
8.90245e+14
9.50047e+14
1.64417e+15
2.20289e+15
2.84292e+15
3.41254e+15
3.98635e+15
4.55176e+15
5.19062e+15
5.65963e+15
6.19158e+15
6.71923e+15
7.25794e+15
7.74657e+15
8.3688e+15
8.88361e+15
9.28633e+15
9.84424e+15
1.01029e+16
1.07264e+16
1.11667e+16
1.14234e+16
1.18186e+16
1.21197e+16
1.26106e+16
1.29405e+16
1.31377e+16
1.36207e+16
1.38152e+16
1.39326e+16
1.44187e+16
1.44892e+16
1.46069e+16
1.49861e+16
1.49827e+16
1.50627e+16
1.52576e+16
1.53758e+16
1.54677e+16
1.54224e+16
1.54684e+16
1.54191e+16
1.55512e+16
1.55085e+16
1.52622e+16
1.52795e+16
1.52171e+16
1.5056e+16
1.48522e+16
1.48336e+16
1.45153e+16
1.42514e+16
1.40289e+16
1.37352e+16
1.34066e+16
1.3142e+16
1.28567e+16
1.25482e+16
1.21141e+16
1.18409e+16
1.13178e+16
1.09137e+16
1.0609e+16
1.00316e+16
9.65101e+15
9.1662e+15
8.79424e+15
8.21264e+15
7.73335e+15
7.2217e+15
6.63183e+15
6.28987e+15
5.68333e+15
5.0413e+15
4.53357e+15
3.99743e+15
3.41337e+15
2.80204e+15
2.16272e+15
1.57109e+15
9.39036e+14
1.01898e+15
1.66708e+15
2.32803e+15
2.96551e+15
3.62604e+15
4.24411e+15
4.79305e+15
5.35778e+15
5.87109e+15
6.48584e+15
7.16527e+15
7.55287e+15
8.20107e+15
8.74313e+15
9.22025e+15
9.68575e+15
1.02791e+16
1.06668e+16
1.1145e+16
1.16481e+16
1.2026e+16
1.24746e+16
1.29154e+16
1.31421e+16
1.34588e+16
1.3904e+16
1.42078e+16
1.46501e+16
1.47165e+16
1.50984e+16
1.53175e+16
1.55156e+16
1.56908e+16
1.5721e+16
1.58624e+16
1.5919e+16
1.62446e+16
1.62862e+16
1.63178e+16
1.63191e+16
1.64385e+16
1.62658e+16
1.62928e+16
1.60156e+16
1.60304e+16
1.59289e+16
1.5782e+16
1.55696e+16
1.55862e+16
1.52017e+16
1.5027e+16
1.46282e+16
1.45397e+16
1.42547e+16
1.39091e+16
1.36135e+16
1.31597e+16
1.26516e+16
1.22566e+16
1.18823e+16
1.16972e+16
1.10091e+16
1.05751e+16
1.0155e+16
9.6429e+15
9.14947e+15
8.69812e+15
8.01455e+15
7.64115e+15
7.15314e+15
6.59533e+15
5.91853e+15
5.30595e+15
4.71993e+15
4.15937e+15
3.52197e+15
2.9083e+15
2.29004e+15
1.64786e+15
1.00078e+15
1.06422e+15
1.76149e+15
2.43768e+15
3.13276e+15
3.71798e+15
4.3846e+15
4.93277e+15
5.51271e+15
6.15291e+15
6.92496e+15
7.46707e+15
7.88353e+15
8.57917e+15
9.20445e+15
9.76076e+15
1.0235e+16
1.07551e+16
1.12667e+16
1.17071e+16
1.2139e+16
1.27349e+16
1.30065e+16
1.34326e+16
1.37909e+16
1.42742e+16
1.45776e+16
1.49329e+16
1.52552e+16
1.54583e+16
1.60016e+16
1.59533e+16
1.62269e+16
1.6372e+16
1.63537e+16
1.65857e+16
1.66804e+16
1.6908e+16
1.69107e+16
1.70422e+16
1.70683e+16
1.70034e+16
1.70817e+16
1.69839e+16
1.68626e+16
1.67726e+16
1.65027e+16
1.66164e+16
1.63988e+16
1.6213e+16
1.59111e+16
1.55901e+16
1.545e+16
1.51627e+16
1.48113e+16
1.45714e+16
1.4131e+16
1.37837e+16
1.3288e+16
1.29324e+16
1.25464e+16
1.20889e+16
1.15202e+16
1.10921e+16
1.06958e+16
1.01911e+16
9.51265e+15
8.98753e+15
8.56116e+15
7.93841e+15
7.41849e+15
6.89636e+15
6.16705e+15
5.61663e+15
5.06061e+15
4.32358e+15
3.68888e+15
2.98013e+15
2.4071e+15
1.75151e+15
1.06284e+15
1.14926e+15
1.89954e+15
2.51823e+15
3.24498e+15
3.80577e+15
4.59351e+15
5.26646e+15
5.78095e+15
6.60679e+15
7.18153e+15
7.64698e+15
8.34299e+15
8.85573e+15
9.61895e+15
1.02289e+16
1.06853e+16
1.13031e+16
1.17853e+16
1.22004e+16
1.27334e+16
1.30786e+16
1.35453e+16
1.38901e+16
1.46105e+16
1.49824e+16
1.51773e+16
1.5461e+16
1.58198e+16
1.60715e+16
1.64709e+16
1.66106e+16
1.69004e+16
1.70229e+16
1.72896e+16
1.73475e+16
1.74774e+16
1.76004e+16
1.77971e+16
1.76262e+16
1.77592e+16
1.77091e+16
1.76159e+16
1.7845e+16
1.75165e+16
1.75788e+16
1.7373e+16
1.74103e+16
1.72025e+16
1.69294e+16
1.65482e+16
1.62922e+16
1.60994e+16
1.59201e+16
1.55473e+16
1.51006e+16
1.48583e+16
1.43227e+16
1.3965e+16
1.34557e+16
1.31415e+16
1.25482e+16
1.20255e+16
1.14664e+16
1.12224e+16
1.06639e+16
1.00429e+16
9.5076e+15
9.00172e+15
8.26344e+15
7.72865e+15
7.13487e+15
6.45378e+15
5.81497e+15
5.22402e+15
4.5515e+15
3.83348e+15
3.19687e+15
2.50523e+15
1.79261e+15
1.10816e+15
1.1391e+15
1.9646e+15
2.7459e+15
3.33027e+15
4.01802e+15
4.80311e+15
5.42169e+15
6.13882e+15
6.76446e+15
7.44978e+15
8.00583e+15
8.65945e+15
9.35582e+15
9.95038e+15
1.05819e+16
1.11539e+16
1.17966e+16
1.22957e+16
1.28438e+16
1.33397e+16
1.37165e+16
1.41647e+16
1.44303e+16
1.50849e+16
1.55252e+16
1.57949e+16
1.61478e+16
1.64683e+16
1.6725e+16
1.7155e+16
1.73932e+16
1.76764e+16
1.77606e+16
1.77993e+16
1.80706e+16
1.82822e+16
1.84558e+16
1.83619e+16
1.84859e+16
1.84644e+16
1.83875e+16
1.84862e+16
1.85078e+16
1.84427e+16
1.83457e+16
1.80914e+16
1.79452e+16
1.76832e+16
1.75081e+16
1.72451e+16
1.71456e+16
1.6818e+16
1.65871e+16
1.62062e+16
1.573e+16
1.54863e+16
1.49832e+16
1.46532e+16
1.41026e+16
1.36834e+16
1.32508e+16
1.27066e+16
1.21163e+16
1.16265e+16
1.11721e+16
1.0536e+16
9.99204e+15
9.35102e+15
8.67231e+15
8.05983e+15
7.54017e+15
6.68258e+15
6.08234e+15
5.33543e+15
4.71602e+15
4.00655e+15
3.33981e+15
2.60835e+15
1.87901e+15
1.16965e+15
1.22046e+15
2.08043e+15
2.78071e+15
3.45358e+15
4.28731e+15
4.99613e+15
5.65241e+15
6.35094e+15
6.91283e+15
7.68039e+15
8.28971e+15
8.96084e+15
9.71389e+15
1.02898e+16
1.09876e+16
1.16761e+16
1.2192e+16
1.284e+16
1.33037e+16
1.37283e+16
1.42453e+16
1.47223e+16
1.51862e+16
1.55992e+16
1.61063e+16
1.66441e+16
1.68108e+16
1.71163e+16
1.74749e+16
1.78711e+16
1.80962e+16
1.82093e+16
1.85978e+16
1.88479e+16
1.88434e+16
1.9094e+16
1.9092e+16
1.92904e+16
1.92392e+16
1.92326e+16
1.91673e+16
1.92222e+16
1.91967e+16
1.92997e+16
1.89535e+16
1.89472e+16
1.85839e+16
1.83633e+16
1.81899e+16
1.80787e+16
1.78734e+16
1.74104e+16
1.7007e+16
1.67057e+16
1.63449e+16
1.59167e+16
1.54347e+16
1.50782e+16
1.45915e+16
1.41666e+16
1.37035e+16
1.32024e+16
1.25025e+16
1.21626e+16
1.14944e+16
1.08789e+16
1.02584e+16
9.71993e+15
8.96295e+15
8.43256e+15
7.75173e+15
6.96357e+15
6.34082e+15
5.58839e+15
4.94152e+15
4.16737e+15
3.3937e+15
2.68628e+15
1.9878e+15
1.22879e+15
1.27484e+15
2.13823e+15
2.92968e+15
3.70336e+15
4.38674e+15
5.18701e+15
5.85157e+15
6.53829e+15
7.25484e+15
8.10985e+15
8.69657e+15
9.48282e+15
1.01588e+16
1.068e+16
1.13904e+16
1.18987e+16
1.26132e+16
1.32225e+16
1.37523e+16
1.42168e+16
1.47892e+16
1.53128e+16
1.58534e+16
1.63302e+16
1.66702e+16
1.70893e+16
1.76115e+16
1.78083e+16
1.80374e+16
1.82512e+16
1.87922e+16
1.89112e+16
1.91024e+16
1.9439e+16
1.96346e+16
1.97673e+16
1.97497e+16
1.99576e+16
1.99397e+16
2.01069e+16
1.99865e+16
1.99056e+16
1.97432e+16
1.98499e+16
1.969e+16
1.95836e+16
1.92677e+16
1.89793e+16
1.90099e+16
1.86505e+16
1.84164e+16
1.80802e+16
1.78199e+16
1.72737e+16
1.70041e+16
1.66656e+16
1.59685e+16
1.55447e+16
1.52646e+16
1.47174e+16
1.42238e+16
1.37361e+16
1.30223e+16
1.26548e+16
1.20588e+16
1.13625e+16
1.06542e+16
1.0026e+16
9.4012e+15
8.65568e+15
7.93624e+15
7.29593e+15
6.6752e+15
5.80563e+15
5.2028e+15
4.33869e+15
3.58148e+15
2.83162e+15
2.06003e+15
1.19286e+15
1.32002e+15
2.15867e+15
3.02498e+15
3.74292e+15
4.5406e+15
5.35489e+15
6.1366e+15
6.85315e+15
7.58984e+15
8.31351e+15
8.96352e+15
9.70418e+15
1.03945e+16
1.11117e+16
1.18033e+16
1.25052e+16
1.3136e+16
1.35228e+16
1.41815e+16
1.47695e+16
1.53891e+16
1.58396e+16
1.63538e+16
1.68569e+16
1.71882e+16
1.75934e+16
1.80529e+16
1.84258e+16
1.86228e+16
1.90644e+16
1.92987e+16
1.95464e+16
1.98237e+16
2.00728e+16
2.02846e+16
2.05774e+16
2.05603e+16
2.05957e+16
2.06546e+16
2.05647e+16
2.05991e+16
2.06855e+16
2.07469e+16
2.05895e+16
2.05416e+16
2.04669e+16
2.00231e+16
1.97407e+16
1.95505e+16
1.92405e+16
1.90521e+16
1.87986e+16
1.84228e+16
1.80818e+16
1.75373e+16
1.73589e+16
1.67142e+16
1.6254e+16
1.57455e+16
1.52261e+16
1.46234e+16
1.4293e+16
1.35307e+16
1.2989e+16
1.23524e+16
1.18038e+16
1.10692e+16
1.03625e+16
9.67884e+15
9.00771e+15
8.26808e+15
7.54126e+15
6.70591e+15
5.97356e+15
5.28711e+15
4.44427e+15
3.73038e+15
2.93113e+15
2.12886e+15
1.23672e+15
1.35401e+15
2.22907e+15
3.07373e+15
3.91407e+15
4.71098e+15
5.52479e+15
6.30551e+15
7.10812e+15
7.76577e+15
8.55796e+15
9.414e+15
1.01002e+16
1.07981e+16
1.14695e+16
1.21613e+16
1.28004e+16
1.34463e+16
1.3906e+16
1.47486e+16
1.52249e+16
1.55731e+16
1.62708e+16
1.67716e+16
1.72444e+16
1.77614e+16
1.81841e+16
1.87024e+16
1.9046e+16
1.93551e+16
1.96229e+16
2.00651e+16
2.04658e+16
2.05983e+16
2.06889e+16
2.1048e+16
2.10255e+16
2.12971e+16
2.14056e+16
2.14328e+16
2.15346e+16
2.1422e+16
2.1454e+16
2.12552e+16
2.13956e+16
2.12136e+16
2.0933e+16
2.07802e+16
2.05356e+16
2.04129e+16
2.01066e+16
1.97039e+16
1.94076e+16
1.90265e+16
1.85683e+16
1.8264e+16
1.78129e+16
1.7345e+16
1.66842e+16
1.62467e+16
1.56416e+16
1.49486e+16
1.45751e+16
1.39778e+16
1.34081e+16
1.28131e+16
1.21723e+16
1.15753e+16
1.08109e+16
1.01527e+16
9.30915e+15
8.54206e+15
7.81461e+15
6.89966e+15
6.25693e+15
5.42877e+15
4.61166e+15
3.81064e+15
3.0205e+15
2.20373e+15
1.30908e+15
1.40049e+15
2.26296e+15
3.17458e+15
4.06743e+15
4.87797e+15
5.63093e+15
6.4529e+15
7.25789e+15
8.12901e+15
8.76038e+15
9.53222e+15
1.03394e+16
1.10456e+16
1.18351e+16
1.25742e+16
1.31339e+16
1.38497e+16
1.44083e+16
1.49922e+16
1.56922e+16
1.63305e+16
1.67751e+16
1.73848e+16
1.78303e+16
1.8511e+16
1.874e+16
1.92508e+16
1.96214e+16
1.98591e+16
2.02384e+16
2.05633e+16
2.08445e+16
2.12365e+16
2.15013e+16
2.1409e+16
2.17723e+16
2.17791e+16
2.21155e+16
2.20992e+16
2.21176e+16
2.21525e+16
2.21417e+16
2.20106e+16
2.19209e+16
2.19637e+16
2.18922e+16
2.12832e+16
2.1321e+16
2.09251e+16
2.07457e+16
2.03572e+16
2.01476e+16
1.95886e+16
1.91271e+16
1.87422e+16
1.83494e+16
1.78434e+16
1.73523e+16
1.68184e+16
1.62193e+16
1.56501e+16
1.5098e+16
1.44886e+16
1.3713e+16
1.31159e+16
1.24658e+16
1.17677e+16
1.10789e+16
1.02829e+16
9.49412e+15
8.62228e+15
8.08378e+15
7.19852e+15
6.42136e+15
5.60398e+15
4.80888e+15
3.99039e+15
3.12518e+15
2.23008e+15
1.35702e+15
1.42693e+15
2.33682e+15
3.24539e+15
4.17007e+15
4.99834e+15
5.77976e+15
6.66492e+15
7.49149e+15
8.33215e+15
9.12304e+15
9.99519e+15
1.06343e+16
1.15056e+16
1.2131e+16
1.27513e+16
1.35772e+16
1.41599e+16
1.49049e+16
1.5478e+16
1.62369e+16
1.67854e+16
1.72006e+16
1.77964e+16
1.84454e+16
1.88184e+16
1.94309e+16
1.99436e+16
2.01918e+16
2.06345e+16
2.0853e+16
2.12859e+16
2.17473e+16
2.18965e+16
2.20723e+16
2.20839e+16
2.24212e+16
2.25812e+16
2.25677e+16
2.25894e+16
2.28901e+16
2.29506e+16
2.27317e+16
2.26252e+16
2.28209e+16
2.25904e+16
2.24315e+16
2.17862e+16
2.18504e+16
2.17053e+16
2.13555e+16
2.09846e+16
2.07101e+16
2.02403e+16
1.97692e+16
1.92204e+16
1.8935e+16
1.83764e+16
1.78004e+16
1.72877e+16
1.67918e+16
1.61606e+16
1.54263e+16
1.48507e+16
1.41968e+16
1.34258e+16
1.29517e+16
1.22887e+16
1.13211e+16
1.06054e+16
9.84228e+15
9.02826e+15
8.25058e+15
7.44286e+15
6.55486e+15
5.81482e+15
4.91313e+15
4.10095e+15
3.17311e+15
2.29507e+15
1.36463e+15
1.46162e+15
2.41449e+15
3.36578e+15
4.27208e+15
5.12119e+15
5.97733e+15
6.90281e+15
7.78353e+15
8.51707e+15
9.49082e+15
1.02575e+16
1.09418e+16
1.17573e+16
1.24813e+16
1.31621e+16
1.39374e+16
1.45901e+16
1.51806e+16
1.59703e+16
1.65916e+16
1.71826e+16
1.7746e+16
1.83581e+16
1.90915e+16
1.94242e+16
1.97879e+16
2.04414e+16
2.07378e+16
2.10553e+16
2.14468e+16
2.17648e+16
2.20153e+16
2.24368e+16
2.26068e+16
2.29638e+16
2.31176e+16
2.33625e+16
2.33679e+16
2.33865e+16
2.36166e+16
2.3592e+16
2.34035e+16
2.34279e+16
2.33219e+16
2.30399e+16
2.28411e+16
2.27198e+16
2.24282e+16
2.23132e+16
2.19001e+16
2.16925e+16
2.11674e+16
2.07372e+16
2.04054e+16
1.99645e+16
1.92763e+16
1.89255e+16
1.83982e+16
1.78428e+16
1.7311e+16
1.6526e+16
1.59079e+16
1.53646e+16
1.46373e+16
1.40208e+16
1.32431e+16
1.23363e+16
1.17084e+16
1.08527e+16
1.00339e+16
9.25009e+15
8.54273e+15
7.65943e+15
6.866e+15
6.05338e+15
5.03056e+15
4.23492e+15
3.35524e+15
2.41645e+15
1.41451e+15
1.48795e+15
2.49276e+15
3.52552e+15
4.3724e+15
5.30347e+15
6.25575e+15
7.09506e+15
8.09307e+15
8.85588e+15
9.64559e+15
1.05261e+16
1.12988e+16
1.22017e+16
1.27479e+16
1.35691e+16
1.43657e+16
1.49988e+16
1.57134e+16
1.63953e+16
1.70256e+16
1.76769e+16
1.82515e+16
1.90371e+16
1.94507e+16
1.99169e+16
2.04608e+16
2.11034e+16
2.13157e+16
2.1589e+16
2.22426e+16
2.24774e+16
2.27907e+16
2.3058e+16
2.33238e+16
2.36037e+16
2.39506e+16
2.40586e+16
2.403e+16
2.40225e+16
2.39391e+16
2.41149e+16
2.41741e+16
2.4038e+16
2.38083e+16
2.36493e+16
2.34802e+16
2.33008e+16
2.31857e+16
2.2774e+16
2.24608e+16
2.20123e+16
2.17408e+16
2.13011e+16
2.08678e+16
2.05148e+16
2.0008e+16
1.93773e+16
1.87933e+16
1.82519e+16
1.76024e+16
1.70425e+16
1.64079e+16
1.57896e+16
1.51706e+16
1.4335e+16
1.36204e+16
1.27598e+16
1.20168e+16
1.10477e+16
1.02525e+16
9.41524e+15
8.72811e+15
7.9429e+15
7.03988e+15
6.14088e+15
5.21504e+15
4.38017e+15
3.42184e+15
2.45198e+15
1.45994e+15
1.50978e+15
2.59668e+15
3.56738e+15
4.54566e+15
5.47972e+15
6.3242e+15
7.23491e+15
8.22059e+15
9.04096e+15
9.87413e+15
1.07292e+16
1.17257e+16
1.2429e+16
1.31974e+16
1.40291e+16
1.47142e+16
1.54046e+16
1.61008e+16
1.68016e+16
1.75263e+16
1.79983e+16
1.87634e+16
1.92396e+16
1.99773e+16
2.04329e+16
2.08409e+16
2.14624e+16
2.18494e+16
2.23703e+16
2.27821e+16
2.32214e+16
2.33816e+16
2.35878e+16
2.41483e+16
2.416e+16
2.44191e+16
2.44902e+16
2.45968e+16
2.4658e+16
2.4463e+16
2.46999e+16
2.45079e+16
2.45169e+16
2.44597e+16
2.43373e+16
2.41755e+16
2.37819e+16
2.35107e+16
2.34098e+16
2.30525e+16
2.28046e+16
2.23023e+16
2.19132e+16
2.14178e+16
2.10117e+16
2.04346e+16
1.97481e+16
1.91809e+16
1.87293e+16
1.80896e+16
1.74921e+16
1.66582e+16
1.60891e+16
1.55761e+16