/*--------------------------------*- C++ -*----------------------------------*\
  =========                 |
  \\      /  F ield         | OpenFOAM: The Open Source CFD Toolbox
   \\    /   O peration     | Website:  https://openfoam.org
    \\  /    A nd           | Version:  6
     \\/     M anipulation  |
\*---------------------------------------------------------------------------*/
FoamFile
{
    version     2.0;
    format      ascii;
    class       volScalarField;
    location    "600";
    object      dnp3;
}
// * * * * * * * * * * * * * * * * * * * * * * * * * * * * * * * * * * * * * //

dimensions      [0 -3 0 0 0 0 0];

internalField   nonuniform List<scalar> 
6400
(
4.22707e+14
1.12553e+15
1.75888e+15
2.34615e+15
2.89728e+15
3.41684e+15
3.90714e+15
4.40498e+15
4.88632e+15
5.34091e+15
5.78492e+15
6.25597e+15
6.69822e+15
7.12653e+15
7.57969e+15
8.00431e+15
8.41668e+15
8.78201e+15
9.1635e+15
9.51165e+15
9.86873e+15
1.01867e+16
1.0458e+16
1.07549e+16
1.10629e+16
1.13094e+16
1.1569e+16
1.17946e+16
1.20256e+16
1.22179e+16
1.24396e+16
1.25538e+16
1.27174e+16
1.28335e+16
1.29539e+16
1.30211e+16
1.31295e+16
1.3156e+16
1.31908e+16
1.32012e+16
1.32581e+16
1.32194e+16
1.31995e+16
1.30996e+16
1.30202e+16
1.29483e+16
1.28912e+16
1.27764e+16
1.26356e+16
1.25293e+16
1.23541e+16
1.22072e+16
1.19676e+16
1.17267e+16
1.14643e+16
1.12001e+16
1.09167e+16
1.06356e+16
1.03144e+16
9.9734e+15
9.61308e+15
9.25536e+15
8.88052e+15
8.49574e+15
8.12755e+15
7.71981e+15
7.30944e+15
6.84877e+15
6.41978e+15
5.95862e+15
5.47805e+15
4.9761e+15
4.45454e+15
3.95252e+15
3.42958e+15
2.90657e+15
2.33992e+15
1.75331e+15
1.13573e+15
4.22917e+14
1.16786e+15
3.17711e+15
5.00608e+15
6.69702e+15
8.24444e+15
9.73042e+15
1.11421e+16
1.2554e+16
1.39427e+16
1.52091e+16
1.64922e+16
1.7797e+16
1.91065e+16
2.03269e+16
2.16048e+16
2.28317e+16
2.39576e+16
2.50501e+16
2.60934e+16
2.71202e+16
2.8078e+16
2.90283e+16
2.98324e+16
3.0683e+16
3.15438e+16
3.22777e+16
3.29902e+16
3.36477e+16
3.42924e+16
3.47888e+16
3.53244e+16
3.57496e+16
3.62302e+16
3.65152e+16
3.6848e+16
3.71097e+16
3.7345e+16
3.74708e+16
3.75708e+16
3.7626e+16
3.76874e+16
3.76597e+16
3.75336e+16
3.73184e+16
3.7086e+16
3.68767e+16
3.66803e+16
3.63373e+16
3.60062e+16
3.56308e+16
3.51844e+16
3.46758e+16
3.40839e+16
3.33922e+16
3.26544e+16
3.18924e+16
3.10928e+16
3.02762e+16
2.94103e+16
2.84274e+16
2.74036e+16
2.63835e+16
2.53152e+16
2.42113e+16
2.31686e+16
2.20401e+16
2.08239e+16
1.95615e+16
1.82709e+16
1.6997e+16
1.562e+16
1.41875e+16
1.27089e+16
1.12657e+16
9.77586e+15
8.23295e+15
6.64687e+15
4.96477e+15
3.19195e+15
1.16256e+15
1.85873e+15
5.10633e+15
8.04151e+15
1.07678e+16
1.32483e+16
1.5635e+16
1.79307e+16
2.01893e+16
2.24063e+16
2.44684e+16
2.65226e+16
2.8598e+16
3.06879e+16
3.27064e+16
3.47568e+16
3.66846e+16
3.8485e+16
4.02398e+16
4.19598e+16
4.36116e+16
4.5146e+16
4.66664e+16
4.79813e+16
4.93652e+16
5.07147e+16
5.19087e+16
5.30249e+16
5.41298e+16
5.50518e+16
5.58687e+16
5.67108e+16
5.74657e+16
5.81177e+16
5.8676e+16
5.91891e+16
5.96337e+16
5.99792e+16
6.01853e+16
6.02484e+16
6.03644e+16
6.04039e+16
6.03799e+16
6.01913e+16
5.99072e+16
5.95553e+16
5.92002e+16
5.88332e+16
5.83322e+16
5.77683e+16
5.71556e+16
5.64419e+16
5.55949e+16
5.46756e+16
5.3607e+16
5.2451e+16
5.12448e+16
4.99434e+16
4.86523e+16
4.72434e+16
4.57005e+16
4.40474e+16
4.24316e+16
4.07199e+16
3.89434e+16
3.72343e+16
3.54289e+16
3.34867e+16
3.14807e+16
2.93766e+16
2.73071e+16
2.51126e+16
2.28314e+16
2.04526e+16
1.81366e+16
1.5699e+16
1.32144e+16
1.06768e+16
7.95785e+15
5.06686e+15
1.84183e+15
2.50801e+15
6.93597e+15
1.09449e+16
1.46325e+16
1.80353e+16
2.12793e+16
2.44056e+16
2.74531e+16
3.04653e+16
3.33127e+16
3.60952e+16
3.88913e+16
4.16663e+16
4.44976e+16
4.72003e+16
4.97883e+16
5.22612e+16
5.46451e+16
5.69929e+16
5.92037e+16
6.13554e+16
6.3355e+16
6.52086e+16
6.71024e+16
6.88744e+16
7.05025e+16
7.19007e+16
7.33417e+16
7.46322e+16
7.57784e+16
7.69175e+16
7.78811e+16
7.87412e+16
7.95469e+16
8.02196e+16
8.08086e+16
8.12784e+16
8.15772e+16
8.16943e+16
8.18126e+16
8.1857e+16
8.1785e+16
8.15057e+16
8.10933e+16
8.06876e+16
8.0217e+16
7.96732e+16
7.90383e+16
7.82697e+16
7.73675e+16
7.63738e+16
7.52334e+16
7.40081e+16
7.26286e+16
7.11056e+16
6.94877e+16
6.77604e+16
6.59197e+16
6.39954e+16
6.19831e+16
5.97808e+16
5.75301e+16
5.52167e+16
5.28732e+16
5.05384e+16
4.80497e+16
4.54601e+16
4.27718e+16
3.98895e+16
3.70145e+16
3.40263e+16
3.09342e+16
2.77587e+16
2.45488e+16
2.12642e+16
1.78955e+16
1.44466e+16
1.07725e+16
6.81166e+15
2.46801e+15
3.13576e+15
8.7253e+15
1.37208e+16
1.834e+16
2.2609e+16
2.67042e+16
3.06258e+16
3.44469e+16
3.81701e+16
4.17847e+16
4.53084e+16
4.87577e+16
5.22409e+16
5.57815e+16
5.91674e+16
6.23702e+16
6.54822e+16
6.84671e+16
7.13303e+16
7.41387e+16
7.67747e+16
7.92909e+16
8.16764e+16
8.40183e+16
8.62278e+16
8.82339e+16
9.0019e+16
9.17338e+16
9.33118e+16
9.47847e+16
9.60654e+16
9.72675e+16
9.83904e+16
9.93041e+16
1.00185e+17
1.00885e+17
1.01468e+17
1.01908e+17
1.02087e+17
1.02199e+17
1.02178e+17
1.0205e+17
1.01713e+17
1.01232e+17
1.00677e+17
1.00171e+17
9.94621e+16
9.8578e+16
9.76386e+16
9.64413e+16
9.51859e+16
9.37118e+16
9.22428e+16
9.06413e+16
8.87486e+16
8.6743e+16
8.4586e+16
8.22499e+16
7.98512e+16
7.73879e+16
7.46906e+16
7.18217e+16
6.89652e+16
6.60438e+16
6.31078e+16
6.00352e+16
5.68336e+16
5.34605e+16
4.98347e+16
4.62187e+16
4.24404e+16
3.85695e+16
3.4653e+16
3.05889e+16
2.64774e+16
2.23207e+16
1.80078e+16
1.34421e+16
8.47693e+15
3.0607e+15
3.74809e+15
1.04253e+16
1.64442e+16
2.19707e+16
2.70528e+16
3.19415e+16
3.66432e+16
4.12241e+16
4.56567e+16
4.99848e+16
5.41946e+16
5.8345e+16
6.25268e+16
6.67015e+16
7.06924e+16
7.44775e+16
7.82276e+16
8.17849e+16
8.52182e+16
8.86008e+16
9.17393e+16
9.46983e+16
9.75109e+16
1.0028e+17
1.02871e+17
1.05277e+17
1.07414e+17
1.09403e+17
1.11254e+17
1.12977e+17
1.14442e+17
1.15898e+17
1.17219e+17
1.18324e+17
1.19321e+17
1.20125e+17
1.20786e+17
1.21237e+17
1.2146e+17
1.21465e+17
1.21466e+17
1.21267e+17
1.20856e+17
1.20379e+17
1.19743e+17
1.1907e+17
1.18158e+17
1.17077e+17
1.15867e+17
1.14449e+17
1.12929e+17
1.11227e+17
1.09409e+17
1.07448e+17
1.05285e+17
1.02982e+17
1.0043e+17
9.76548e+16
9.48194e+16
9.19393e+16
8.8792e+16
8.54262e+16
8.2037e+16
7.8526e+16
7.5031e+16
7.13997e+16
6.76192e+16
6.35311e+16
5.9271e+16
5.49609e+16
5.04563e+16
4.5851e+16
4.11686e+16
3.63555e+16
3.14712e+16
2.65449e+16
2.14061e+16
1.59923e+16
1.00904e+16
3.6456e+15
4.33417e+15
1.20708e+16
1.90921e+16
2.5507e+16
3.14124e+16
3.7075e+16
4.25279e+16
4.78232e+16
5.2969e+16
5.8018e+16
6.28945e+16
6.77323e+16
7.25773e+16
7.73119e+16
8.18837e+16
8.63461e+16
9.06292e+16
9.48293e+16
9.88396e+16
1.02651e+17
1.06212e+17
1.09652e+17
1.12869e+17
1.15984e+17
1.18969e+17
1.21763e+17
1.24284e+17
1.26475e+17
1.28524e+17
1.30526e+17
1.32229e+17
1.33826e+17
1.35243e+17
1.36476e+17
1.37592e+17
1.38461e+17
1.392e+17
1.39573e+17
1.39739e+17
1.39828e+17
1.39764e+17
1.39507e+17
1.39057e+17
1.38492e+17
1.37662e+17
1.36812e+17
1.35795e+17
1.34502e+17
1.33022e+17
1.31369e+17
1.29584e+17
1.27669e+17
1.2561e+17
1.2321e+17
1.20771e+17
1.18241e+17
1.1532e+17
1.12154e+17
1.08871e+17
1.05587e+17
1.02017e+17
9.82312e+16
9.43047e+16
9.03112e+16
8.62894e+16
8.20952e+16
7.78086e+16
7.3127e+16
6.82327e+16
6.32767e+16
5.80787e+16
5.28004e+16
4.7408e+16
4.18797e+16
3.62485e+16
3.05637e+16
2.46276e+16
1.84424e+16
1.16729e+16
4.2203e+15
4.91497e+15
1.37113e+16
2.17055e+16
2.89947e+16
3.57403e+16
4.21753e+16
4.83655e+16
5.43252e+16
6.02067e+16
6.59272e+16
7.14795e+16
7.69692e+16
8.24767e+16
8.77723e+16
9.29622e+16
9.80204e+16
1.02921e+17
1.07647e+17
1.12083e+17
1.16362e+17
1.20355e+17
1.24206e+17
1.27899e+17
1.31382e+17
1.34656e+17
1.3771e+17
1.40526e+17
1.42932e+17
1.45393e+17
1.4752e+17
1.49326e+17
1.51046e+17
1.52573e+17
1.53888e+17
1.55041e+17
1.55902e+17
1.56656e+17
1.57068e+17
1.57266e+17
1.57271e+17
1.57096e+17
1.56698e+17
1.56161e+17
1.55518e+17
1.54473e+17
1.53394e+17
1.52255e+17
1.50743e+17
1.49095e+17
1.47167e+17
1.45198e+17
1.43012e+17
1.4054e+17
1.3797e+17
1.3523e+17
1.32341e+17
1.29136e+17
1.25743e+17
1.22071e+17
1.18254e+17
1.14278e+17
1.1013e+17
1.05817e+17
1.01353e+17
9.68679e+16
9.21694e+16
8.72862e+16
8.21161e+16
7.6721e+16
7.11148e+16
6.53519e+16
5.94295e+16
5.33774e+16
4.71483e+16
4.0869e+16
3.44281e+16
2.77484e+16
2.07811e+16
1.31646e+16
4.74958e+15
5.48165e+15
1.52998e+16
2.42693e+16
3.24362e+16
4.00356e+16
4.71755e+16
5.41214e+16
6.08101e+16
6.73321e+16
7.37467e+16
8.0018e+16
8.60616e+16
9.22019e+16
9.82189e+16
1.0399e+17
1.0947e+17
1.14975e+17
1.20291e+17
1.25154e+17
1.29849e+17
1.34308e+17
1.38504e+17
1.42533e+17
1.46444e+17
1.49955e+17
1.53271e+17
1.56305e+17
1.58965e+17
1.6154e+17
1.63833e+17
1.65883e+17
1.67691e+17
1.6933e+17
1.70602e+17
1.71699e+17
1.7259e+17
1.73295e+17
1.73687e+17
1.73839e+17
1.73736e+17
1.73413e+17
1.72895e+17
1.7216e+17
1.71294e+17
1.70194e+17
1.68897e+17
1.67514e+17
1.6583e+17
1.64036e+17
1.61919e+17
1.59624e+17
1.57136e+17
1.54473e+17
1.5168e+17
1.48625e+17
1.45416e+17
1.41908e+17
1.38179e+17
1.34203e+17
1.3009e+17
1.25698e+17
1.21276e+17
1.16604e+17
1.11735e+17
1.06703e+17
1.01573e+17
9.62041e+16
9.04944e+16
8.46059e+16
7.85031e+16
7.22628e+16
6.57743e+16
5.90373e+16
5.2196e+16
4.52753e+16
3.81715e+16
3.0765e+16
2.30061e+16
1.45563e+16
5.25707e+15
6.05873e+15
1.68582e+16
2.67557e+16
3.58066e+16
4.423e+16
5.21589e+16
5.98159e+16
6.71822e+16
7.44343e+16
8.15427e+16
8.84972e+16
9.51481e+16
1.01771e+17
1.08449e+17
1.14822e+17
1.20943e+17
1.26928e+17
1.32649e+17
1.38039e+17
1.43184e+17
1.48054e+17
1.52573e+17
1.56957e+17
1.61145e+17
1.64985e+17
1.68532e+17
1.71692e+17
1.74588e+17
1.77285e+17
1.79644e+17
1.81785e+17
1.83635e+17
1.8525e+17
1.86528e+17
1.87637e+17
1.88389e+17
1.89015e+17
1.89271e+17
1.89319e+17
1.892e+17
1.88754e+17
1.8804e+17
1.8718e+17
1.8607e+17
1.84824e+17
1.83329e+17
1.81729e+17
1.79838e+17
1.77796e+17
1.75473e+17
1.72965e+17
1.70224e+17
1.67331e+17
1.64239e+17
1.60884e+17
1.57416e+17
1.53527e+17
1.49535e+17
1.45405e+17
1.40981e+17
1.36294e+17
1.31413e+17
1.26431e+17
1.21272e+17
1.15957e+17
1.10436e+17
1.04535e+17
9.83881e+16
9.19871e+16
8.54884e+16
7.87413e+16
7.17001e+16
6.43714e+16
5.70104e+16
4.94835e+16
4.17548e+16
3.36554e+16
2.51381e+16
1.59279e+16
5.73272e+15
6.65165e+15
1.84423e+16
2.92364e+16
3.91363e+16
4.83376e+16
5.70899e+16
6.54767e+16
7.3538e+16
8.14976e+16
8.92816e+16
9.69284e+16
1.04139e+17
1.11276e+17
1.1853e+17
1.25514e+17
1.32203e+17
1.38684e+17
1.44841e+17
1.50727e+17
1.56334e+17
1.61534e+17
1.66437e+17
1.70996e+17
1.75343e+17
1.79503e+17
1.83233e+17
1.86586e+17
1.89564e+17
1.92388e+17
1.94759e+17
1.96899e+17
1.98733e+17
2.00334e+17
2.01628e+17
2.0265e+17
2.03335e+17
2.03799e+17
2.03995e+17
2.03881e+17
2.03689e+17
2.02977e+17
2.02107e+17
2.01069e+17
1.9971e+17
1.98245e+17
1.96534e+17
1.94762e+17
1.92642e+17
1.90329e+17
1.87802e+17
1.85049e+17
1.82022e+17
1.7888e+17
1.75549e+17
1.71995e+17
1.68185e+17
1.64051e+17
1.59948e+17
1.55548e+17
1.50951e+17
1.46068e+17
1.40857e+17
1.35622e+17
1.3012e+17
1.24456e+17
1.18584e+17
1.12274e+17
1.05715e+17
9.90293e+16
9.20432e+16
8.48578e+16
7.73609e+16
6.95681e+16
6.16639e+16
5.357e+16
4.52039e+16
3.64342e+16
2.7231e+16
1.72421e+16
6.2043e+15
7.25227e+15
2.00446e+16
3.17088e+16
4.24788e+16
5.25134e+16
6.20064e+16
7.11226e+16
7.98844e+16
8.84352e+16
9.69094e+16
1.05172e+17
1.13085e+17
1.20797e+17
1.28583e+17
1.36127e+17
1.43426e+17
1.50383e+17
1.56938e+17
1.63223e+17
1.6916e+17
1.7472e+17
1.79991e+17
1.84733e+17
1.89417e+17
1.93704e+17
1.97488e+17
2.00944e+17
2.03991e+17
2.0678e+17
2.09322e+17
2.11457e+17
2.13272e+17
2.148e+17
2.15892e+17
2.16723e+17
2.17352e+17
2.17688e+17
2.17607e+17
2.17291e+17
2.16872e+17
2.16056e+17
2.15039e+17
2.13706e+17
2.12163e+17
2.10465e+17
2.08606e+17
2.06493e+17
2.04132e+17
2.01628e+17
1.9883e+17
1.95861e+17
1.92621e+17
1.89244e+17
1.85728e+17
1.81922e+17
1.7787e+17
1.73675e+17
1.69233e+17
1.64636e+17
1.59922e+17
1.54883e+17
1.49506e+17
1.43952e+17
1.38194e+17
1.32194e+17
1.25955e+17
1.19431e+17
1.12567e+17
1.05542e+17
9.82172e+16
9.06127e+16
8.2773e+16
7.4518e+16
6.60862e+16
5.74521e+16
4.85026e+16
3.91742e+16
2.92618e+16
1.85282e+16
6.67461e+15
7.80996e+15
2.1643e+16
3.42168e+16
4.58078e+16
5.66767e+16
6.69542e+16
7.67696e+16
8.62951e+16
9.54207e+16
1.04556e+17
1.13458e+17
1.22055e+17
1.30454e+17
1.38712e+17
1.46691e+17
1.54502e+17
1.6184e+17
1.68802e+17
1.75484e+17
1.8177e+17
1.87714e+17
1.933e+17
1.98298e+17
2.03144e+17
2.07556e+17
2.11351e+17
2.1483e+17
2.17921e+17
2.20723e+17
2.23189e+17
2.25215e+17
2.26891e+17
2.28303e+17
2.29368e+17
2.29941e+17
2.30436e+17
2.30437e+17
2.30198e+17
2.29767e+17
2.29024e+17
2.28063e+17
2.2671e+17
2.25277e+17
2.23505e+17
2.21617e+17
2.19431e+17
2.17093e+17
2.14533e+17
2.11728e+17
2.08697e+17
2.05475e+17
2.02013e+17
1.98408e+17
1.94595e+17
1.90626e+17
1.86441e+17
1.8207e+17
1.77478e+17
1.72667e+17
1.67747e+17
1.62582e+17
1.57154e+17
1.51316e+17
1.45403e+17
1.39145e+17
1.32702e+17
1.25966e+17
1.18898e+17
1.11679e+17
1.03982e+17
9.60227e+16
8.7833e+16
7.92183e+16
7.02902e+16
6.11887e+16
5.16798e+16
4.17656e+16
3.1222e+16
1.97962e+16
7.12362e+15
8.3561e+15
2.32352e+16
3.67112e+16
4.9159e+16
6.08696e+16
7.19159e+16
8.24135e+16
9.25719e+16
1.02374e+17
1.12233e+17
1.21779e+17
1.31033e+17
1.40091e+17
1.48836e+17
1.57235e+17
1.65463e+17
1.73357e+17
1.80654e+17
1.87771e+17
1.94315e+17
2.00543e+17
2.06137e+17
2.11443e+17
2.16375e+17
2.20868e+17
2.24773e+17
2.28169e+17
2.31275e+17
2.33906e+17
2.36335e+17
2.38194e+17
2.39818e+17
2.41042e+17
2.41824e+17
2.42217e+17
2.42528e+17
2.42332e+17
2.41888e+17
2.41231e+17
2.4017e+17
2.38968e+17
2.37364e+17
2.35583e+17
2.33528e+17
2.31327e+17
2.28907e+17
2.26377e+17
2.23575e+17
2.20575e+17
2.17273e+17
2.13829e+17
2.10178e+17
2.06269e+17
2.02336e+17
1.98153e+17
1.93784e+17
1.89278e+17
1.84639e+17
1.7961e+17
1.74546e+17
1.69264e+17
1.63648e+17
1.5774e+17
1.51637e+17
1.45271e+17
1.38696e+17
1.31889e+17
1.24759e+17
1.17278e+17
1.09342e+17
1.01082e+17
9.2613e+16
8.3688e+16
7.4385e+16
6.47713e+16
5.48318e+16
4.42604e+16
3.31133e+16
2.10046e+16
7.57758e+15
8.86033e+15
2.47592e+16
3.91663e+16
5.25295e+16
6.50185e+16
7.68607e+16
8.81351e+16
9.89381e+16
1.09412e+17
1.1988e+17
1.29997e+17
1.39971e+17
1.49638e+17
1.58887e+17
1.67777e+17
1.76413e+17
1.84643e+17
1.92308e+17
1.99677e+17
2.06566e+17
2.12972e+17
2.18706e+17
2.24163e+17
2.29144e+17
2.33628e+17
2.37424e+17
2.40934e+17
2.43969e+17
2.46512e+17
2.48747e+17
2.50533e+17
2.51856e+17
2.52863e+17
2.53437e+17
2.53651e+17
2.53559e+17
2.53196e+17
2.52452e+17
2.51585e+17
2.50183e+17
2.48693e+17
2.4689e+17
2.44857e+17
2.42492e+17
2.40104e+17
2.37357e+17
2.34525e+17
2.31484e+17
2.2828e+17
2.24757e+17
2.2108e+17
2.17183e+17
2.13117e+17
2.08961e+17
2.04599e+17
2.00014e+17
1.9534e+17
1.90634e+17
1.85526e+17
1.80347e+17
1.7494e+17
1.69229e+17
1.63262e+17
1.57017e+17
1.50673e+17
1.44033e+17
1.3714e+17
1.29899e+17
1.2227e+17
1.14154e+17
1.05836e+17
9.70644e+16
8.78468e+16
7.82936e+16
6.83032e+16
5.78824e+16
4.675e+16
3.49991e+16
2.22145e+16
8.02054e+15
9.39536e+15
2.62954e+16
4.16196e+16
5.58105e+16
6.90875e+16
8.17559e+16
9.38209e+16
1.05354e+17
1.16465e+17
1.27509e+17
1.38334e+17
1.48878e+17
1.59033e+17
1.68848e+17
1.78254e+17
1.87318e+17
1.95793e+17
2.03795e+17
2.11442e+17
2.18486e+17
2.25088e+17
2.30975e+17
2.36547e+17
2.41529e+17
2.45876e+17
2.49633e+17
2.53045e+17
2.55684e+17
2.58282e+17
2.60256e+17
2.61789e+17
2.62991e+17
2.6367e+17
2.64108e+17
2.63979e+17
2.63705e+17
2.63013e+17
2.61935e+17
2.60816e+17
2.59147e+17
2.57402e+17
2.55427e+17
2.531e+17
2.50573e+17
2.47894e+17
2.44881e+17
2.41714e+17
2.38382e+17
2.35008e+17
2.31236e+17
2.27322e+17
2.23302e+17
2.18953e+17
2.1453e+17
2.10036e+17
2.05387e+17
2.00538e+17
1.95791e+17
1.90549e+17
1.85227e+17
1.79772e+17
1.74074e+17
1.68091e+17
1.61686e+17
1.55381e+17
1.48676e+17
1.41686e+17
1.34364e+17
1.26653e+17
1.18561e+17
1.10049e+17
1.01124e+17
9.17715e+16
8.1908e+16
7.15605e+16
6.07449e+16
4.91132e+16
3.67889e+16
2.33597e+16
8.43061e+15
9.92298e+15
2.78369e+16
4.40991e+16
5.91455e+16
7.31854e+16
8.65831e+16
9.94603e+16
1.11748e+17
1.23593e+17
1.35267e+17
1.46723e+17
1.57822e+17
1.68436e+17
1.78794e+17
1.88681e+17
1.98056e+17
2.06866e+17
2.15147e+17
2.23049e+17
2.30165e+17
2.36815e+17
2.42847e+17
2.48378e+17
2.53266e+17
2.57494e+17
2.61163e+17
2.64424e+17
2.66951e+17
2.69324e+17
2.71048e+17
2.72274e+17
2.73196e+17
2.73583e+17
2.73729e+17
2.73449e+17
2.7286e+17
2.71885e+17
2.70586e+17
2.69181e+17
2.67308e+17
2.65261e+17
2.62939e+17
2.60425e+17
2.57643e+17
2.54654e+17
2.51478e+17
2.4806e+17
2.44446e+17
2.40829e+17
2.36858e+17
2.32831e+17
2.28546e+17
2.241e+17
2.19475e+17
2.14748e+17
2.09958e+17
2.04961e+17
1.99998e+17
1.94768e+17
1.89351e+17
1.83768e+17
1.77965e+17
1.72005e+17
1.65649e+17
1.59217e+17
1.5262e+17
1.45588e+17
1.38275e+17
1.3056e+17
1.22383e+17
1.13908e+17
1.04828e+17
9.5246e+16
8.523e+16
7.45927e+16
6.33408e+16
5.13455e+16
3.84587e+16
2.44594e+16
8.84367e+15
1.05153e+16
2.94012e+16
4.65518e+16
6.24926e+16
7.73853e+16
9.15324e+16
1.0508e+17
1.18127e+17
1.30647e+17
1.42962e+17
1.5499e+17
1.66629e+17
1.7784e+17
1.88729e+17
1.98994e+17
2.0865e+17
2.17805e+17
2.26253e+17
2.34369e+17
2.41578e+17
2.48148e+17
2.5419e+17
2.59586e+17
2.64407e+17
2.6848e+17
2.72002e+17
2.75108e+17
2.77447e+17
2.79463e+17
2.81033e+17
2.81909e+17
2.82557e+17
2.82798e+17
2.82527e+17
2.82036e+17
2.81216e+17
2.8001e+17
2.78482e+17
2.76681e+17
2.74625e+17
2.72317e+17
2.69806e+17
2.66967e+17
2.63902e+17
2.60811e+17
2.57363e+17
2.53747e+17
2.49952e+17
2.46067e+17
2.41787e+17
2.37557e+17
2.33096e+17
2.28518e+17
2.23754e+17
2.18936e+17
2.13944e+17
2.08808e+17
2.03556e+17
1.98268e+17
1.92691e+17
1.87068e+17
1.81237e+17
1.75204e+17
1.69036e+17
1.62541e+17
1.55902e+17
1.48865e+17
1.41554e+17
1.33912e+17
1.25799e+17
1.17317e+17
1.08069e+17
9.83378e+16
8.81766e+16
7.7354e+16
6.57839e+16
5.3399e+16
4.00495e+16
2.54964e+16
9.23866e+15
1.10902e+16
3.09149e+16
4.90108e+16
6.58079e+16
8.1559e+16
9.6475e+16
1.10678e+17
1.24373e+17
1.37615e+17
1.50644e+17
1.63313e+17
1.75392e+17
1.87218e+17
1.98474e+17
2.09053e+17
2.19033e+17
2.28473e+17
2.37113e+17
2.45248e+17
2.52553e+17
2.5914e+17
2.65132e+17
2.70394e+17
2.74918e+17
2.78894e+17
2.82334e+17
2.85134e+17
2.8736e+17
2.88993e+17
2.90308e+17
2.90951e+17
2.91311e+17
2.91185e+17
2.90685e+17
2.89973e+17
2.88869e+17
2.87533e+17
2.85697e+17
2.83682e+17
2.81364e+17
2.78831e+17
2.7594e+17
2.72928e+17
2.69615e+17
2.66312e+17
2.62635e+17
2.58848e+17
2.54801e+17
2.50719e+17
2.4624e+17
2.41863e+17
2.37192e+17
2.32542e+17
2.2759e+17
2.22562e+17
2.1737e+17
2.12016e+17
2.06596e+17
2.01168e+17
1.95613e+17
1.89924e+17
1.83882e+17
1.77959e+17
1.71776e+17
1.65219e+17
1.58501e+17
1.51598e+17
1.44267e+17
1.36737e+17
1.28743e+17
1.20147e+17
1.1085e+17
1.0113e+17
9.08368e+16
7.98119e+16
6.79712e+16
5.52786e+16
4.15723e+16
2.6503e+16
9.62855e+15
1.16571e+16
3.24769e+16
5.1462e+16
6.91036e+16
8.55889e+16
1.01285e+17
1.16181e+17
1.30574e+17
1.44633e+17
1.58396e+17
1.71535e+17
1.8413e+17
1.96505e+17
2.08191e+17
2.19111e+17
2.29337e+17
2.38937e+17
2.47747e+17
2.55844e+17
2.63151e+17
2.69767e+17
2.75505e+17
2.80644e+17
2.85054e+17
2.88899e+17
2.92013e+17
2.94563e+17
2.96511e+17
2.97919e+17
2.98955e+17
2.99178e+17
2.99329e+17
2.98882e+17
2.98166e+17
2.97232e+17
2.95862e+17
2.9425e+17
2.9219e+17
2.89993e+17
2.87443e+17
2.84659e+17
2.81687e+17
2.78407e+17
2.74942e+17
2.71359e+17
2.67474e+17
2.6361e+17
2.5926e+17
2.54908e+17
2.50309e+17
2.45692e+17
2.40935e+17
2.35953e+17
2.30826e+17
2.25672e+17
2.203e+17
2.14862e+17
2.09332e+17
2.03733e+17
1.98031e+17
1.92087e+17
1.86096e+17
1.80122e+17
1.73985e+17
1.67394e+17
1.60585e+17
1.5372e+17
1.46561e+17
1.38903e+17
1.30984e+17
1.22482e+17
1.13237e+17
1.03599e+17
9.32797e+16
8.20522e+16
7.00171e+16
5.70292e+16
4.30044e+16
2.74729e+16
1.0003e+16
1.22428e+16
3.40806e+16
5.39015e+16
7.23389e+16
8.95791e+16
1.06129e+17
1.21827e+17
1.36902e+17
1.51762e+17
1.66001e+17
1.79619e+17
1.92893e+17
2.05634e+17
2.17793e+17
2.29023e+17
2.39436e+17
2.49199e+17
2.58027e+17
2.66056e+17
2.73324e+17
2.79721e+17
2.85415e+17
2.90399e+17
2.9478e+17
2.98199e+17
3.00949e+17
3.03215e+17
3.04917e+17
3.06066e+17
3.06787e+17
3.06862e+17
3.06773e+17
3.06112e+17
3.05266e+17
3.03958e+17
3.0239e+17
3.00497e+17
2.98292e+17
2.95763e+17
2.93129e+17
2.90139e+17
2.87003e+17
2.83652e+17
2.79894e+17
2.76204e+17
2.72116e+17
2.68015e+17
2.63504e+17
2.58917e+17
2.54137e+17
2.49334e+17
2.4434e+17
2.39219e+17
2.33842e+17
2.28443e+17
2.23013e+17
2.17322e+17
2.11724e+17
2.05866e+17
2.00085e+17
1.93982e+17
1.87883e+17
1.81743e+17
1.75655e+17
1.69051e+17
1.62296e+17
1.55432e+17
1.48261e+17
1.40622e+17
1.32786e+17
1.24369e+17
1.15236e+17
1.05619e+17
9.52806e+16
8.40799e+16
7.1896e+16
5.87432e+16
4.43362e+16
2.83482e+16
1.03446e+16
1.27718e+16
3.56449e+16
5.64251e+16
7.55762e+16
9.36706e+16
1.10989e+17
1.27405e+17
1.4328e+17
1.58684e+17
1.73539e+17
1.87743e+17
2.01561e+17
2.14774e+17
2.27177e+17
2.3869e+17
2.49334e+17
2.59193e+17
2.68019e+17
2.76029e+17
2.83135e+17
2.89344e+17
2.94857e+17
2.99572e+17
3.03724e+17
3.06839e+17
3.09351e+17
3.11375e+17
3.12805e+17
3.13732e+17
3.14239e+17
3.14145e+17
3.13772e+17
3.12871e+17
3.11768e+17
3.10363e+17
3.08589e+17
3.06467e+17
3.04026e+17
3.01443e+17
2.98552e+17
2.95452e+17
2.922e+17
2.88594e+17
2.8476e+17
2.80714e+17
2.7647e+17
2.72091e+17
2.6753e+17
2.62829e+17
2.57921e+17
2.52897e+17
2.4759e+17
2.42274e+17
2.36708e+17
2.31083e+17
2.25434e+17
2.19605e+17
2.13846e+17
2.07804e+17
2.01839e+17
1.95723e+17
1.89444e+17
1.8311e+17
1.76845e+17
1.70244e+17
1.63471e+17
1.56595e+17
1.49445e+17
1.41945e+17
1.34183e+17
1.25915e+17
1.16848e+17
1.07341e+17
9.69648e+16
8.58339e+16
7.35861e+16
6.02549e+16
4.55634e+16
2.91977e+16
1.06773e+16
1.33446e+16
3.72106e+16
5.8839e+16
7.88563e+16
9.78397e+16
1.1585e+17
1.32979e+17
1.49525e+17
1.65473e+17
1.80986e+17
1.95784e+17
2.10106e+17
2.2374e+17
2.36392e+17
2.48196e+17
2.59027e+17
2.68827e+17
2.77675e+17
2.85495e+17
2.92416e+17
2.98533e+17
3.03845e+17
3.08352e+17
3.12118e+17
3.15089e+17
3.17428e+17
3.19063e+17
3.20306e+17
3.21041e+17
3.21294e+17
3.21005e+17
3.20412e+17
3.1951e+17
3.18167e+17
3.16458e+17
3.14548e+17
3.12214e+17
3.0975e+17
3.06883e+17
3.03883e+17
3.00605e+17
2.97186e+17
2.93433e+17
2.89508e+17
2.85185e+17
2.80917e+17
2.76243e+17
2.71635e+17
2.66752e+17
2.61681e+17
2.5638e+17
2.50821e+17
2.45256e+17
2.39546e+17
2.33716e+17
2.27709e+17
2.21659e+17
2.1571e+17
2.09527e+17
2.03319e+17
1.97052e+17
1.90652e+17
1.84111e+17
1.77814e+17
1.71034e+17
1.64222e+17
1.57279e+17
1.5023e+17
1.42801e+17
1.3514e+17
1.26937e+17
1.18134e+17
1.08745e+17
9.84625e+16
8.7385e+16
7.50606e+16
6.15581e+16
4.66736e+16
2.99989e+16
1.0978e+16
1.38937e+16
3.87169e+16
6.12978e+16
8.22157e+16
1.01906e+17
1.20685e+17
1.38521e+17
1.55732e+17
1.72404e+17
1.88594e+17
2.03928e+17
2.18746e+17
2.32627e+17
2.45435e+17
2.57401e+17
2.68219e+17
2.78107e+17
2.86861e+17
2.94546e+17
3.01339e+17
3.07344e+17
3.12448e+17
3.16716e+17
3.20153e+17
3.22823e+17
3.24934e+17
3.26418e+17
3.27298e+17
3.27781e+17
3.27833e+17
3.27537e+17
3.26681e+17
3.25621e+17
3.24171e+17
3.22336e+17
3.20221e+17
3.17786e+17
3.15227e+17
3.12247e+17
3.09167e+17
3.05672e+17
3.02073e+17
2.9818e+17
2.94177e+17
2.8978e+17
2.85294e+17
2.80507e+17
2.75721e+17
2.70725e+17
2.65385e+17
2.60005e+17
2.54347e+17
2.4858e+17
2.42585e+17
2.36591e+17
2.30359e+17
2.239e+17
2.17693e+17
2.11337e+17
2.04812e+17
1.98348e+17
1.91805e+17
1.85036e+17
1.78551e+17
1.71769e+17
1.64852e+17
1.57794e+17
1.50685e+17
1.43379e+17
1.3568e+17
1.27619e+17
1.19075e+17
1.09789e+17
9.96179e+16
8.86529e+16
7.6326e+16
6.27979e+16
4.77239e+16
3.07027e+16
1.11948e+16
1.44149e+16
4.0149e+16
6.36694e+16
8.54164e+16
1.05947e+17
1.25506e+17
1.44141e+17
1.62044e+17
1.79362e+17
1.96048e+17
2.11898e+17
2.27094e+17
2.41257e+17
2.54363e+17
2.66436e+17
2.7733e+17
2.87073e+17
2.95598e+17
3.03283e+17
3.09989e+17
3.1577e+17
3.20523e+17
3.24501e+17
3.27631e+17
3.30028e+17
3.31923e+17
3.33209e+17
3.33938e+17
3.34233e+17
3.34198e+17
3.33634e+17
3.32743e+17
3.31544e+17
3.29958e+17
3.28055e+17
3.25851e+17
3.23272e+17
3.20546e+17
3.17517e+17
3.14277e+17
3.10843e+17
3.07188e+17
3.03219e+17
2.98997e+17
2.94556e+17
2.89885e+17
2.84922e+17
2.7994e+17
2.74701e+17
2.69271e+17
2.63705e+17
2.57917e+17
2.51911e+17
2.4582e+17
2.39489e+17
2.33141e+17
2.26432e+17
2.19826e+17
2.13117e+17
2.06339e+17
1.99582e+17
1.92907e+17
1.85879e+17
1.79056e+17
1.7218e+17
1.65251e+17
1.58118e+17
1.50908e+17
1.436e+17
1.36013e+17
1.28063e+17
1.19618e+17
1.10346e+17
1.00439e+17
8.95314e+16
7.73201e+16
6.38286e+16
4.86152e+16
3.13282e+16
1.14357e+16
1.49207e+16
4.15785e+16
6.59814e+16
8.86544e+16
1.09989e+17
1.303e+17
1.49687e+17
1.68314e+17
1.86194e+17
2.0348e+17
2.19934e+17
2.35407e+17
2.49797e+17
2.63042e+17
2.75148e+17
2.85984e+17
2.95602e+17
3.0404e+17
3.11678e+17
3.17996e+17
3.23411e+17
3.28043e+17
3.31708e+17
3.34644e+17
3.3694e+17
3.3865e+17
3.39792e+17
3.40366e+17
3.40551e+17
3.40341e+17
3.39753e+17
3.38728e+17
3.37287e+17
3.35593e+17
3.33655e+17
3.31291e+17
3.28826e+17
3.25967e+17
3.22878e+17
3.1957e+17
3.15944e+17
3.12176e+17
3.08068e+17
3.03881e+17
2.99234e+17
2.94487e+17
2.89552e+17
2.84423e+17
2.79005e+17
2.73393e+17
2.6752e+17
2.61574e+17
2.55338e+17
2.49054e+17
2.42606e+17
2.35914e+17
2.29087e+17
2.22121e+17
2.1518e+17
2.08055e+17
2.00969e+17
1.93993e+17
1.8683e+17
1.7968e+17
1.72616e+17
1.65479e+17
1.58287e+17
1.50976e+17
1.43632e+17
1.36018e+17
1.28174e+17
1.19947e+17
1.10822e+17
1.01101e+17
9.02512e+16
7.81676e+16
6.46617e+16
4.93694e+16
3.18794e+16
1.1679e+16
1.54258e+16
4.29835e+16
6.8305e+16
9.18801e+16
1.14e+17
1.35002e+17
1.55141e+17
1.74478e+17
1.93057e+17
2.10747e+17
2.27632e+17
2.43474e+17
2.58078e+17
2.71514e+17
2.83602e+17
2.9428e+17
3.03833e+17
3.12134e+17
3.195e+17
3.25689e+17
3.30927e+17
3.35211e+17
3.38709e+17
3.41447e+17
3.43619e+17
3.4499e+17
3.46041e+17
3.46446e+17
3.46486e+17
3.4618e+17
3.45429e+17
3.44321e+17
3.42888e+17
3.41076e+17
3.38958e+17
3.36737e+17
3.34068e+17
3.3129e+17
3.28048e+17
3.24701e+17
3.21029e+17
3.17163e+17
3.13021e+17
3.08707e+17
3.04105e+17
2.99236e+17
2.94065e+17
2.89005e+17
2.83308e+17
2.77694e+17
2.71652e+17
2.65531e+17
2.59035e+17
2.5254e+17
2.45854e+17
2.39022e+17
2.31943e+17
2.24796e+17
2.17524e+17
2.10156e+17
2.0276e+17
1.95362e+17
1.87919e+17
1.80372e+17
1.73025e+17
1.65678e+17
1.58223e+17
1.50797e+17
1.43334e+17
1.358e+17
1.27998e+17
1.20002e+17
1.1109e+17
1.01439e+17
9.07771e+16
7.88314e+16
6.53961e+16
5.00173e+16
3.23305e+16
1.18786e+16
1.59222e+16
4.44125e+16
7.06032e+16
9.50369e+16
1.17945e+17
1.39691e+17
1.60602e+17
1.80632e+17
1.99831e+17
2.1807e+17
2.35396e+17
2.51426e+17
2.66269e+17
2.79635e+17
2.91641e+17
3.02355e+17
3.11731e+17
3.19972e+17
3.27046e+17
3.3307e+17
3.37967e+17
3.41985e+17
3.4536e+17
3.47979e+17
3.49903e+17
3.51295e+17
3.52132e+17
3.52395e+17
3.52399e+17
3.51897e+17
3.51137e+17
3.49917e+17
3.48292e+17
3.46443e+17
3.44306e+17
3.42039e+17
3.39294e+17
3.36384e+17
3.33224e+17
3.29887e+17
3.26097e+17
3.22139e+17
3.18017e+17
3.13656e+17
3.0888e+17
3.03998e+17
2.98775e+17
2.93651e+17
2.87964e+17
2.82103e+17
2.76024e+17
2.69705e+17
2.63141e+17
2.56374e+17
2.49408e+17
2.42364e+17
2.35048e+17
2.27566e+17
2.20038e+17
2.12372e+17
2.04603e+17
1.9688e+17
1.89199e+17
1.81394e+17
1.73653e+17
1.66084e+17
1.58387e+17
1.50698e+17
1.43134e+17
1.35575e+17
1.27818e+17
1.19781e+17
1.11072e+17
1.01553e+17
9.10878e+16
7.92121e+16
6.59112e+16
5.05342e+16
3.27528e+16
1.20375e+16
1.64264e+16
4.58664e+16
7.29411e+16
9.81716e+16
1.21875e+17
1.44426e+17
1.66102e+17
1.86811e+17
2.0654e+17
2.25394e+17
2.42983e+17
2.59203e+17
2.74153e+17
2.87545e+17
2.99479e+17
3.10107e+17
3.19321e+17
3.27343e+17
3.34267e+17
3.39971e+17
3.4467e+17
3.48584e+17
3.51805e+17
3.54269e+17
3.55894e+17
3.57146e+17
3.57903e+17
3.58031e+17
3.57912e+17
3.5736e+17
3.5648e+17
3.55219e+17
3.53722e+17
3.51846e+17
3.49788e+17
3.47326e+17
3.44628e+17
3.41614e+17
3.38434e+17
3.34999e+17
3.31182e+17
3.27198e+17
3.23033e+17
3.18534e+17
3.13835e+17
3.08954e+17
3.03818e+17
2.98379e+17
2.92734e+17
2.86744e+17
2.80608e+17
2.74094e+17
2.67464e+17
2.6058e+17
2.53394e+17
2.45958e+17
2.38546e+17
2.3078e+17
2.22903e+17
2.14886e+17
2.06766e+17
1.98738e+17
1.90714e+17
1.82553e+17
1.74491e+17
1.66441e+17
1.58433e+17
1.50682e+17
1.42814e+17
1.35133e+17
1.27349e+17
1.19433e+17
1.10837e+17
1.01531e+17
9.11718e+16
7.94153e+16
6.62897e+16
5.10237e+16
3.31639e+16
1.22086e+16
1.69276e+16
4.73373e+16
7.53272e+16
1.01329e+17
1.25884e+17
1.49278e+17
1.71628e+17
1.93054e+17
2.13292e+17
2.32507e+17
2.50433e+17
2.66864e+17
2.81916e+17
2.95168e+17
3.07132e+17
3.1764e+17
3.2666e+17
3.34507e+17
3.41143e+17
3.46622e+17
3.51203e+17
3.54958e+17
3.58026e+17
3.60123e+17
3.61753e+17
3.62925e+17
3.63527e+17
3.63548e+17
3.63429e+17
3.62931e+17
3.61908e+17
3.60688e+17
3.59103e+17
3.57237e+17
3.55083e+17
3.52584e+17
3.49751e+17
3.46698e+17
3.43457e+17
3.3998e+17
3.36336e+17
3.32326e+17
3.28098e+17
3.23609e+17
3.18966e+17
3.14031e+17
3.08874e+17
3.03436e+17
2.97627e+17
2.9164e+17
2.8534e+17
2.78854e+17
2.72012e+17
2.64969e+17
2.57692e+17
2.50056e+17
2.42248e+17
2.34279e+17
2.26106e+17
2.17738e+17
2.09322e+17
2.00821e+17
1.92427e+17
1.83942e+17
1.75429e+17
1.67155e+17
1.58868e+17
1.50702e+17
1.42603e+17
1.34768e+17
1.26802e+17
1.18864e+17
1.10399e+17
1.01186e+17
9.0955e+16
7.94487e+16
6.64775e+16
5.12796e+16
3.34261e+16
1.23484e+16
1.74187e+16
4.87953e+16
7.7627e+16
1.04538e+17
1.29902e+17
1.53989e+17
1.77061e+17
1.99138e+17
2.19906e+17
2.39525e+17
2.57762e+17
2.74458e+17
2.89416e+17
3.02701e+17
3.14578e+17
3.2486e+17
3.33681e+17
3.41312e+17
3.47716e+17
3.53029e+17
3.57407e+17
3.61084e+17
3.63814e+17
3.65935e+17
3.67435e+17
3.68463e+17
3.69056e+17
3.69144e+17
3.69022e+17
3.68358e+17
3.67319e+17
3.65942e+17
3.64326e+17
3.62439e+17
3.60049e+17
3.57599e+17
3.54738e+17
3.51773e+17
3.48493e+17
3.45011e+17
3.41403e+17
3.37359e+17
3.33289e+17
3.2881e+17
3.24161e+17
3.19181e+17
3.13962e+17
3.08584e+17
3.02906e+17
2.96825e+17
2.90507e+17
2.8383e+17
2.76929e+17
2.69659e+17
2.62212e+17
2.5441e+17
2.46444e+17
2.38228e+17
2.2979e+17
2.21112e+17
2.12233e+17
2.03261e+17
1.94448e+17
1.85551e+17
1.76667e+17