/*--------------------------------*- C++ -*----------------------------------*\
  =========                 |
  \\      /  F ield         | OpenFOAM: The Open Source CFD Toolbox
   \\    /   O peration     | Website:  https://openfoam.org
    \\  /    A nd           | Version:  6
     \\/     M anipulation  |
\*---------------------------------------------------------------------------*/
FoamFile
{
    version     2.0;
    format      ascii;
    class       volScalarField;
    location    "600";
    object      dnp4;
}
// * * * * * * * * * * * * * * * * * * * * * * * * * * * * * * * * * * * * * //

dimensions      [0 -3 0 0 0 0 0];

internalField   nonuniform List<scalar> 
6400
(
4.17219e+14
1.00302e+15
1.50267e+15
1.96275e+15
2.39812e+15
2.80723e+15
3.18644e+15
3.59927e+15
3.99684e+15
4.35986e+15
4.71088e+15
5.11853e+15
5.47526e+15
5.81409e+15
6.20986e+15
6.56577e+15
6.91711e+15
7.19363e+15
7.51754e+15
7.79286e+15
8.10412e+15
8.3575e+15
8.54086e+15
8.78643e+15
9.06967e+15
9.25618e+15
9.4877e+15
9.67116e+15
9.88484e+15
1.00438e+16
1.02758e+16
1.03184e+16
1.04745e+16
1.05603e+16
1.06715e+16
1.06986e+16
1.08266e+16
1.08177e+16
1.08428e+16
1.08349e+16
1.09341e+16
1.08692e+16
1.08638e+16
1.07219e+16
1.06333e+16
1.05707e+16
1.05527e+16
1.04449e+16
1.03048e+16
1.02515e+16
1.00863e+16
1.00001e+16
9.75823e+15
9.53873e+15
9.29832e+15
9.07301e+15
8.82868e+15
8.60684e+15
8.32788e+15
8.03348e+15
7.72037e+15
7.42634e+15
7.11369e+15
6.79475e+15
6.51938e+15
6.18672e+15
5.87155e+15
5.47888e+15
5.1653e+15
4.80395e+15
4.42413e+15
4.02046e+15
3.59313e+15
3.21399e+15
2.8086e+15
2.42106e+15
1.97193e+15
1.51626e+15
1.03972e+15
4.23534e+14
1.06494e+15
2.64348e+15
4.0164e+15
5.27021e+15
6.38095e+15
7.47692e+15
8.5084e+15
9.59797e+15
1.06926e+16
1.15997e+16
1.25663e+16
1.35868e+16
1.46315e+16
1.55282e+16
1.65653e+16
1.75518e+16
1.83971e+16
1.92271e+16
2.00077e+16
2.0807e+16
2.15272e+16
2.22877e+16
2.28237e+16
2.34888e+16
2.42252e+16
2.4783e+16
2.5358e+16
2.588e+16
2.6438e+16
2.67671e+16
2.72188e+16
2.7514e+16
2.79711e+16
2.811e+16
2.83941e+16
2.8599e+16
2.88144e+16
2.8883e+16
2.89553e+16
2.89832e+16
2.90734e+16
2.90545e+16
2.89095e+16
2.86458e+16
2.83885e+16
2.82136e+16
2.81132e+16
2.77918e+16
2.75496e+16
2.72796e+16
2.69378e+16
2.65436e+16
2.60581e+16
2.54502e+16
2.48159e+16
2.41905e+16
2.35477e+16
2.29249e+16
2.22685e+16
2.14505e+16
2.06102e+16
1.98193e+16
1.89784e+16
1.81075e+16
1.73911e+16
1.65663e+16
1.56373e+16
1.46802e+16
1.37219e+16
1.28413e+16
1.18156e+16
1.07343e+16
9.60708e+15
8.58058e+15
7.50768e+15
6.38394e+15
5.24537e+15
4.01645e+15
2.72894e+15
1.07428e+15
1.62615e+15
4.09794e+15
6.20019e+15
8.14389e+15
9.83462e+15
1.15165e+16
1.31543e+16
1.48179e+16
1.64829e+16
1.79258e+16
1.93999e+16
2.09385e+16
2.25281e+16
2.40159e+16
2.56213e+16
2.7069e+16
2.83567e+16
2.96349e+16
3.09221e+16
3.21622e+16
3.3265e+16
3.44322e+16
3.52932e+16
3.63583e+16
3.74489e+16
3.83489e+16
3.91976e+16
4.01114e+16
4.07696e+16
4.13173e+16
4.19925e+16
4.25923e+16
4.30835e+16
4.34893e+16
4.38965e+16
4.42684e+16
4.45508e+16
4.46687e+16
4.45973e+16
4.46998e+16
4.47387e+16
4.47544e+16
4.45526e+16
4.42487e+16
4.38798e+16
4.35743e+16
4.3332e+16
4.29298e+16
4.24998e+16
4.20736e+16
4.15549e+16
4.08863e+16
4.01846e+16
3.93068e+16
3.83643e+16
3.74198e+16
3.63848e+16
3.54602e+16
3.44043e+16
3.31912e+16
3.18601e+16
3.06746e+16
2.93743e+16
2.80135e+16
2.68475e+16
2.55905e+16
2.41743e+16
2.27375e+16
2.12056e+16
1.98159e+16
1.82712e+16
1.66415e+16
1.48936e+16
1.33261e+16
1.15939e+16
9.85488e+15
8.12476e+15
6.2013e+15
4.13791e+15
1.63393e+15
2.12866e+15
5.42116e+15
8.22777e+15
1.07534e+16
1.30366e+16
1.5253e+16
1.74269e+16
1.9587e+16
2.17921e+16
2.37794e+16
2.57084e+16
2.77027e+16
2.96863e+16
3.18274e+16
3.38047e+16
3.56706e+16
3.74264e+16
3.91188e+16
4.08499e+16
4.24324e+16
4.40276e+16
4.54536e+16
4.67196e+16
4.81709e+16
4.95222e+16
5.07487e+16
5.16697e+16
5.27925e+16
5.37556e+16
5.45634e+16
5.54746e+16
5.61702e+16
5.67904e+16
5.74347e+16
5.79468e+16
5.84319e+16
5.88252e+16
5.90276e+16
5.90013e+16
5.90789e+16
5.91322e+16
5.90909e+16
5.87792e+16
5.83167e+16
5.79626e+16
5.75859e+16
5.71941e+16
5.67595e+16
5.61956e+16
5.55092e+16
5.47789e+16
5.39058e+16
5.30037e+16
5.19525e+16
5.07702e+16
4.95382e+16
4.82297e+16
4.68287e+16
4.53907e+16
4.39145e+16
4.22056e+16
4.05116e+16
3.87913e+16
3.71048e+16
3.5531e+16
3.37899e+16
3.19974e+16
3.016e+16
2.80846e+16
2.61305e+16
2.40743e+16
2.19259e+16
1.97124e+16
1.75205e+16
1.52797e+16
1.29885e+16
1.06965e+16
8.18516e+15
5.38637e+15
2.1227e+15
2.61025e+15
6.72694e+15
1.0104e+16
1.31884e+16
1.59882e+16
1.87592e+16
2.14324e+16
2.40921e+16
2.67065e+16
2.9232e+16
3.16698e+16
3.4019e+16
3.64749e+16
3.91062e+16
4.15534e+16
4.37836e+16
4.59742e+16
4.80602e+16
5.00524e+16
5.20884e+16
5.39537e+16
5.57469e+16
5.74404e+16
5.91969e+16
6.08771e+16
6.23564e+16
6.35896e+16
6.48406e+16
6.59863e+16
6.70872e+16
6.79712e+16
6.8853e+16
6.97416e+16
7.03883e+16
7.11327e+16
7.16972e+16
7.22057e+16
7.26104e+16
7.26652e+16
7.27263e+16
7.26754e+16
7.25765e+16
7.22272e+16
7.17308e+16
7.12175e+16
7.09358e+16
7.04308e+16
6.97482e+16
6.91193e+16
6.81575e+16
6.72413e+16
6.60679e+16
6.50661e+16
6.39882e+16
6.2527e+16
6.10187e+16
5.93928e+16
5.75817e+16
5.57966e+16
5.40434e+16
5.201e+16
4.97892e+16
4.77129e+16
4.56318e+16
4.36493e+16
4.15665e+16
3.94141e+16
3.71224e+16
3.45164e+16
3.20704e+16
2.9457e+16
2.67981e+16
2.4172e+16
2.13783e+16
1.86117e+16
1.58975e+16
1.30783e+16
1.00428e+16
6.57455e+15
2.57838e+15
3.08089e+15
7.91368e+15
1.1962e+16
1.55855e+16
1.88273e+16
2.20695e+16
2.52406e+16
2.84004e+16
3.14481e+16
3.44339e+16
3.72997e+16
4.01219e+16
4.30615e+16
4.60772e+16
4.88776e+16
5.14393e+16
5.40947e+16
5.655e+16
5.8945e+16
6.14286e+16
6.3642e+16
6.56993e+16
6.76616e+16
6.97295e+16
7.16707e+16
7.34842e+16
7.49992e+16
7.64239e+16
7.77676e+16
7.90565e+16
8.0039e+16
8.11816e+16
8.22563e+16
8.31141e+16
8.3953e+16
8.46261e+16
8.52241e+16
8.56183e+16
8.57547e+16
8.56325e+16
8.56745e+16
8.55099e+16
8.51089e+16
8.47408e+16
8.42286e+16
8.38107e+16
8.31291e+16
8.23127e+16
8.14296e+16
8.03316e+16
7.9213e+16
7.79321e+16
7.66159e+16
7.52227e+16
7.3641e+16
7.19896e+16
7.00709e+16
6.791e+16
6.58021e+16
6.37864e+16
6.14559e+16
5.88793e+16
5.64094e+16
5.3854e+16
5.14874e+16
4.9052e+16
4.65438e+16
4.36749e+16
4.06817e+16
3.7766e+16
3.46528e+16
3.1505e+16
2.83558e+16
2.51e+16
2.18504e+16
1.86897e+16
1.53591e+16
1.18218e+16
7.75216e+15
3.04885e+15
3.51639e+15
9.04058e+15
1.37428e+16
1.78897e+16
2.16125e+16
2.531e+16
2.89458e+16
3.25409e+16
3.60493e+16
3.95317e+16
4.28094e+16
4.61017e+16
4.94848e+16
5.27737e+16
5.59096e+16
5.90147e+16
6.19617e+16
6.49573e+16
6.78105e+16
7.05066e+16
7.29534e+16
7.53929e+16
7.76277e+16
7.9898e+16
8.21719e+16
8.43429e+16
8.62503e+16
8.77553e+16
8.91984e+16
9.07859e+16
9.20242e+16
9.32659e+16
9.43908e+16
9.53897e+16
9.63875e+16
9.71448e+16
9.78819e+16
9.81412e+16
9.82014e+16
9.83063e+16
9.83104e+16
9.81442e+16
9.77952e+16
9.74147e+16
9.67177e+16
9.61691e+16
9.55155e+16
9.45464e+16
9.34116e+16
9.21477e+16
9.08197e+16
8.94498e+16
8.80146e+16
8.61325e+16
8.43854e+16
8.26889e+16
8.04765e+16
7.80027e+16
7.54967e+16
7.31912e+16
7.05514e+16
6.7694e+16
6.47501e+16
6.18591e+16
5.91025e+16
5.62387e+16
5.34448e+16
5.01545e+16
4.66911e+16
4.33199e+16
3.969e+16
3.60974e+16
3.24638e+16
2.87421e+16
2.49939e+16
2.13492e+16
1.75039e+16
1.35542e+16
8.9569e+15
3.52869e+15
3.95395e+15
1.01938e+16
1.55125e+16
2.01705e+16
2.44192e+16
2.85847e+16
3.26744e+16
3.66248e+16
4.06536e+16
4.45532e+16
4.82783e+16
5.19958e+16
5.58449e+16
5.94297e+16
6.29985e+16
6.65199e+16
6.99559e+16
7.33069e+16
7.63688e+16
7.93955e+16
8.21406e+16
8.48726e+16
8.75655e+16
9.01332e+16
9.25974e+16
9.49381e+16
9.71178e+16
9.87782e+16
1.00797e+17
1.02449e+17
1.03742e+17
1.05119e+17
1.06387e+17
1.07507e+17
1.08571e+17
1.0933e+17
1.10137e+17
1.1054e+17
1.10752e+17
1.10813e+17
1.10748e+17
1.10464e+17
1.10125e+17
1.09796e+17
1.08905e+17
1.08151e+17
1.07508e+17
1.0638e+17
1.05197e+17
1.03692e+17
1.02312e+17
1.00734e+17
9.88204e+16
9.69398e+16
9.4955e+16
9.29191e+16
9.05235e+16
8.7989e+16
8.51401e+16
8.22288e+16
7.92407e+16
7.61363e+16
7.29282e+16
6.96441e+16
6.65442e+16
6.32864e+16
5.99512e+16
5.63534e+16
5.2586e+16
4.86572e+16
4.46676e+16
4.06026e+16
3.65069e+16
3.22729e+16
2.81484e+16
2.39621e+16
1.96488e+16
1.52127e+16
1.00728e+16
3.95022e+15
4.37357e+15
1.12761e+16
1.72333e+16
2.24203e+16
2.723e+16
3.17412e+16
3.63306e+16
4.07721e+16
4.51479e+16
4.95204e+16
5.37914e+16
5.77672e+16
6.20467e+16
6.62534e+16
7.02075e+16
7.38425e+16
7.7778e+16
8.16482e+16
8.4966e+16
8.82645e+16
9.14196e+16
9.43726e+16
9.73076e+16
1.00346e+17
1.02963e+17
1.05542e+17
1.07912e+17
1.09872e+17
1.1196e+17
1.13823e+17
1.15516e+17
1.17033e+17
1.18526e+17
1.19603e+17
1.20622e+17
1.21527e+17
1.22347e+17
1.22839e+17
1.23118e+17
1.2315e+17
1.22998e+17
1.22699e+17
1.22205e+17
1.21686e+17
1.20942e+17
1.20035e+17
1.19192e+17
1.18006e+17
1.16826e+17
1.15249e+17
1.13537e+17
1.11675e+17
1.09692e+17
1.07684e+17
1.05405e+17
1.03065e+17
1.00395e+17
9.75261e+16
9.44159e+16
9.12835e+16
8.78526e+16
8.45926e+16
8.10881e+16
7.74481e+16
7.37473e+16
7.01435e+16
6.63923e+16
6.22922e+16
5.81369e+16
5.38467e+16
4.95708e+16
4.50964e+16
4.0407e+16
3.57537e+16
3.11942e+16
2.65826e+16
2.1777e+16
1.67858e+16
1.10778e+16
4.35845e+15
4.81935e+15
1.23216e+16
1.88416e+16
2.45805e+16
2.99006e+16
3.49238e+16
3.99325e+16
4.47715e+16
4.96749e+16
5.45283e+16
5.92882e+16
6.36471e+16
6.80916e+16
7.28228e+16
7.72247e+16
8.14255e+16
8.56637e+16
8.97383e+16
9.35375e+16
9.72198e+16
1.00732e+17
1.03923e+17
1.07205e+17
1.10488e+17
1.13497e+17
1.16329e+17
1.18787e+17
1.21089e+17
1.23346e+17
1.25309e+17
1.27187e+17
1.2884e+17
1.30368e+17
1.31572e+17
1.32755e+17
1.33557e+17
1.3441e+17
1.34839e+17
1.35132e+17
1.35372e+17
1.35243e+17
1.34831e+17
1.34376e+17
1.3367e+17
1.3293e+17
1.31939e+17
1.30971e+17
1.29681e+17
1.28314e+17
1.2663e+17
1.248e+17
1.22736e+17
1.20587e+17
1.18279e+17
1.15692e+17
1.13119e+17
1.09968e+17
1.06832e+17
1.03679e+17
1.00208e+17
9.64893e+16
9.26387e+16
8.88374e+16
8.49645e+16
8.10731e+16
7.71005e+16
7.27353e+16
6.82262e+16
6.35405e+16
5.89848e+16
5.42709e+16
4.93184e+16
4.41251e+16
3.91505e+16
3.41539e+16
2.91271e+16
2.38375e+16
1.8303e+16
1.21189e+16
4.73012e+15
5.29835e+15
1.34286e+16
2.0463e+16
2.66955e+16
3.24422e+16
3.8046e+16
4.35135e+16
4.87896e+16
5.41852e+16
5.94928e+16
6.47713e+16
6.94332e+16
7.41254e+16
7.92431e+16
8.41357e+16
8.87919e+16
9.34053e+16
9.77872e+16
1.02054e+17
1.06191e+17
1.09965e+17
1.13577e+17
1.16936e+17
1.20304e+17
1.23764e+17
1.26835e+17
1.29594e+17
1.32024e+17
1.34547e+17
1.36594e+17
1.3857e+17
1.40327e+17
1.41995e+17
1.43424e+17
1.44661e+17
1.45573e+17
1.4637e+17
1.46957e+17
1.47223e+17
1.47622e+17
1.47294e+17
1.46896e+17
1.46425e+17
1.45563e+17
1.44721e+17
1.43632e+17
1.42654e+17
1.41231e+17
1.39644e+17
1.37858e+17
1.35838e+17
1.33488e+17
1.31113e+17
1.28585e+17
1.25844e+17
1.22825e+17
1.1939e+17
1.16232e+17
1.12737e+17
1.09111e+17
1.05203e+17
1.00921e+17
9.68494e+16
9.25447e+16
8.82316e+16
8.38536e+16
7.89917e+16
7.4004e+16
6.91196e+16
6.40195e+16
5.89019e+16
5.35573e+16
4.8013e+16
4.25928e+16
3.71656e+16
3.16371e+16
2.58483e+16
1.98592e+16
1.31161e+16
5.1164e+15
5.79468e+15
1.45769e+16
2.20805e+16
2.8852e+16
3.51351e+16
4.11622e+16
4.70924e+16
5.28213e+16
5.84965e+16
6.42962e+16
6.99518e+16
7.51956e+16
8.02688e+16
8.57219e+16
9.10395e+16
9.62701e+16
1.01265e+17
1.05931e+17
1.10529e+17
1.14927e+17
1.19076e+17
1.23144e+17
1.26669e+17
1.30551e+17
1.3418e+17
1.37327e+17
1.403e+17
1.42927e+17
1.45487e+17
1.4801e+17
1.50168e+17
1.52112e+17
1.53894e+17
1.55214e+17
1.56377e+17
1.57494e+17
1.58386e+17
1.58775e+17
1.59e+17
1.59316e+17
1.59144e+17
1.58829e+17
1.58147e+17
1.57286e+17
1.56344e+17
1.55318e+17
1.54015e+17
1.52445e+17
1.50795e+17
1.48775e+17
1.46607e+17
1.44098e+17
1.41497e+17
1.38821e+17
1.3578e+17
1.32456e+17
1.29053e+17
1.25377e+17
1.21622e+17
1.17876e+17
1.13775e+17
1.09288e+17
1.04727e+17
1.00057e+17
9.52406e+16
9.03051e+16
8.51988e+16
7.98192e+16
7.45184e+16
6.90575e+16
6.34684e+16
5.78482e+16
5.18614e+16
4.59456e+16
4.00669e+16
3.40753e+16
2.79449e+16
2.14031e+16
1.41212e+16
5.52055e+15
6.21173e+15
1.57234e+16
2.37735e+16
3.09901e+16
3.7811e+16
4.43484e+16
5.06855e+16
5.69942e+16
6.29241e+16
6.91658e+16
7.52512e+16
8.10443e+16
8.67265e+16
9.24369e+16
9.79854e+16
1.03646e+17
1.08884e+17
1.13901e+17
1.18886e+17
1.23646e+17
1.28284e+17
1.32783e+17
1.36686e+17
1.40836e+17
1.44721e+17
1.47955e+17
1.51079e+17
1.53944e+17
1.56731e+17
1.59349e+17
1.61576e+17
1.63557e+17
1.65449e+17
1.67074e+17
1.68113e+17
1.69357e+17
1.69996e+17
1.70475e+17
1.70883e+17
1.7098e+17
1.70925e+17
1.70359e+17
1.69869e+17
1.68948e+17
1.68011e+17
1.66709e+17
1.65308e+17
1.63678e+17
1.61752e+17
1.59563e+17
1.57164e+17
1.54461e+17
1.51634e+17
1.48562e+17
1.4536e+17
1.41907e+17
1.38268e+17
1.34396e+17
1.30305e+17
1.26211e+17
1.21899e+17
1.17349e+17
1.12274e+17
1.07338e+17
1.02056e+17
9.67652e+16
9.12978e+16
8.5606e+16
8.00617e+16
7.40631e+16
6.80187e+16
6.20067e+16
5.56777e+16
4.9237e+16
4.29703e+16
3.64933e+16
2.99134e+16
2.29184e+16
1.51525e+16
5.90298e+15
6.61174e+15
1.68668e+16
2.54478e+16
3.31766e+16
4.05494e+16
4.75651e+16
5.42779e+16
6.0917e+16
6.72977e+16
7.41064e+16
8.06388e+16
8.69388e+16
9.3197e+16
9.92253e+16
1.05024e+17
1.10977e+17
1.16845e+17
1.22131e+17
1.27643e+17
1.3266e+17
1.37684e+17
1.42103e+17
1.46571e+17
1.50932e+17
1.55074e+17
1.58677e+17
1.61841e+17
1.64987e+17
1.67738e+17
1.7061e+17
1.72876e+17
1.75142e+17
1.77083e+17
1.78581e+17
1.79702e+17
1.81028e+17
1.81728e+17
1.82251e+17
1.8267e+17
1.8259e+17
1.82492e+17
1.81865e+17
1.81107e+17
1.80032e+17
1.78864e+17
1.77466e+17
1.76026e+17
1.74241e+17
1.72233e+17
1.69792e+17
1.67211e+17
1.64367e+17
1.61146e+17
1.58008e+17
1.54526e+17
1.50823e+17
1.46998e+17
1.43089e+17
1.38615e+17
1.34251e+17
1.29699e+17
1.24752e+17
1.19499e+17
1.14145e+17
1.08588e+17
1.02984e+17
9.73309e+16
9.14977e+16
8.5467e+16
7.90724e+16
7.25648e+16
6.61951e+16
5.9518e+16
5.26891e+16
4.5863e+16
3.90786e+16
3.18534e+16
2.44075e+16
1.61296e+16
6.31505e+15
6.93531e+15
1.78889e+16
2.7056e+16
3.54093e+16
4.32117e+16
5.07531e+16
5.80169e+16
6.50085e+16
7.18346e+16
7.89996e+16
8.58501e+16
9.27986e+16
9.95594e+16
1.05971e+17
1.12192e+17
1.18479e+17
1.24606e+17
1.30289e+17
1.36046e+17
1.41575e+17
1.46864e+17
1.51551e+17
1.56373e+17
1.60968e+17
1.6529e+17
1.6892e+17
1.72593e+17
1.75943e+17
1.789e+17
1.81806e+17
1.84364e+17
1.86501e+17
1.88486e+17
1.90052e+17
1.9131e+17
1.92329e+17
1.93177e+17
1.93589e+17
1.9406e+17
1.93768e+17
1.93537e+17
1.92944e+17
1.92106e+17
1.90814e+17
1.89655e+17
1.87973e+17
1.86271e+17
1.84321e+17
1.82198e+17
1.79589e+17
1.7679e+17
1.73681e+17
1.70343e+17
1.6693e+17
1.63228e+17
1.59203e+17
1.55117e+17
1.5111e+17
1.46496e+17
1.41892e+17
1.37046e+17
1.31837e+17
1.26375e+17
1.20636e+17
1.14988e+17
1.09129e+17
1.03188e+17
9.70287e+16
9.06311e+16
8.38401e+16
7.72301e+16
7.03545e+16
6.32605e+16
5.61847e+16
4.89718e+16
4.17035e+16
3.39513e+16
2.59972e+16
1.71732e+16
6.72659e+15
7.3198e+15
1.89397e+16
2.86688e+16
3.74794e+16
4.57326e+16
5.38544e+16
6.16852e+16
6.9186e+16
7.63935e+16
8.38607e+16
9.13083e+16
9.86446e+16
1.0571e+17
1.12647e+17
1.19383e+17
1.26099e+17
1.32381e+17
1.3847e+17
1.44608e+17
1.50362e+17
1.56038e+17
1.61104e+17
1.66309e+17
1.71146e+17
1.75488e+17
1.79373e+17
1.83241e+17
1.86242e+17
1.89746e+17
1.9263e+17
1.9518e+17
1.97585e+17
1.99435e+17
2.0124e+17
2.02332e+17
2.03494e+17
2.04186e+17
2.04416e+17
2.04845e+17
2.0447e+17
2.04157e+17
2.03628e+17
2.02602e+17
2.01362e+17
1.9999e+17
1.98122e+17
1.96079e+17
1.93842e+17
1.91649e+17
1.88802e+17
1.85761e+17
1.82619e+17
1.78916e+17
1.7514e+17
1.71306e+17
1.67259e+17
1.62906e+17
1.58858e+17
1.53989e+17
1.49083e+17
1.44081e+17
1.38799e+17
1.33181e+17
1.2699e+17
1.21254e+17
1.15089e+17
1.08776e+17
1.02277e+17
9.5548e+16
8.86622e+16
8.15865e+16
7.4397e+16
6.70952e+16
5.95596e+16
5.19057e+16
4.42384e+16
3.59978e+16
2.75296e+16
1.81641e+16
7.098e+15
7.68779e+15
2.00006e+16
3.03335e+16
3.96564e+16
4.83129e+16
5.68306e+16
6.52675e+16
7.33164e+16
8.1085e+16
8.89693e+16
9.68852e+16
1.04612e+17
1.11959e+17
1.19418e+17
1.26647e+17
1.33627e+17
1.40304e+17
1.46764e+17
1.53327e+17
1.59244e+17
1.65109e+17
1.70634e+17
1.7602e+17
1.80999e+17
1.85479e+17
1.89604e+17
1.93635e+17
1.96906e+17
2.00482e+17
2.03407e+17
2.05886e+17
2.08269e+17
2.10069e+17
2.11807e+17
2.13104e+17
2.14138e+17
2.14742e+17
2.14987e+17
2.15287e+17
2.14921e+17
2.14411e+17
2.1357e+17
2.1253e+17
2.11125e+17
2.09462e+17
2.07574e+17
2.05326e+17
2.02805e+17
2.00382e+17
1.97372e+17
1.94321e+17
1.90861e+17
1.87144e+17
1.83145e+17
1.79e+17
1.74798e+17
1.70254e+17
1.65845e+17
1.61016e+17
1.55923e+17
1.50623e+17
1.45045e+17
1.39341e+17
1.33091e+17
1.26939e+17
1.20773e+17
1.14152e+17
1.07432e+17
1.00455e+17
9.31868e+16
8.60132e+16
7.84216e+16
7.06363e+16
6.28511e+16
5.47925e+16
4.65577e+16
3.80075e+16
2.89724e+16
1.91464e+16
7.50017e+15
8.17838e+15
2.11048e+16
3.19472e+16
4.18551e+16
5.10846e+16
6.00414e+16
6.88175e+16
7.74238e+16
8.56411e+16
9.39693e+16
1.02261e+17
1.10379e+17
1.18304e+17
1.26304e+17
1.3389e+17
1.41138e+17
1.48302e+17
1.55003e+17
1.61998e+17
1.68217e+17
1.74125e+17
1.79943e+17
1.85417e+17
1.90662e+17
1.95284e+17
1.99601e+17
2.03845e+17
2.07285e+17
2.10711e+17
2.13881e+17
2.1622e+17
2.18587e+17
2.20614e+17
2.22032e+17
2.23379e+17
2.24417e+17
2.24996e+17
2.25206e+17
2.25118e+17
2.24752e+17
2.24081e+17
2.23196e+17
2.21825e+17
2.20153e+17
2.18564e+17
2.16411e+17
2.14026e+17
2.11399e+17
2.08684e+17
2.05286e+17
2.0204e+17
1.98431e+17
1.94638e+17
1.90543e+17
1.86382e+17
1.81935e+17
1.77244e+17
1.72368e+17
1.67479e+17
1.62097e+17
1.56705e+17
1.51014e+17
1.45059e+17
1.39036e+17
1.32605e+17
1.26151e+17
1.19273e+17
1.12288e+17
1.0517e+17
9.77502e+16
9.03294e+16
8.22266e+16
7.40225e+16
6.59118e+16
5.75585e+16
4.88945e+16
3.98993e+16
3.04109e+16
2.00897e+16
7.89291e+15
8.63436e+15
2.21119e+16
3.35772e+16
4.39979e+16
5.38105e+16
6.32446e+16
7.23396e+16
8.1291e+16
9.00472e+16
9.89659e+16
1.07791e+17
1.16135e+17
1.24709e+17
1.32997e+17
1.40876e+17
1.48541e+17
1.56149e+17
1.63234e+17
1.70375e+17
1.76983e+17
1.83216e+17
1.89299e+17
1.94941e+17
2.00073e+17
2.04997e+17
2.09688e+17
2.13889e+17
2.17669e+17
2.20914e+17
2.24122e+17
2.26536e+17
2.28844e+17
2.30635e+17
2.32052e+17
2.33391e+17
2.34274e+17
2.34974e+17
2.34938e+17
2.34758e+17
2.34189e+17
2.3337e+17
2.32013e+17
2.30558e+17
2.28643e+17
2.26873e+17
2.24498e+17
2.22002e+17
2.19103e+17
2.1621e+17
2.1263e+17
2.093e+17
2.05479e+17
2.01743e+17
1.97475e+17
1.93085e+17
1.8842e+17
1.83455e+17
1.78384e+17
1.73327e+17
1.68059e+17
1.62583e+17
1.5647e+17
1.50669e+17
1.44523e+17
1.37842e+17
1.31049e+17
1.2419e+17
1.16895e+17
1.097e+17
1.02201e+17
9.4267e+16
8.58029e+16
7.74047e+16
6.89101e+16
6.01437e+16
5.10528e+16
4.1686e+16
3.18692e+16
2.10576e+16
8.30186e+15
9.07376e+15
2.3211e+16
3.51961e+16
4.61167e+16
5.62791e+16
6.62102e+16
7.56932e+16
8.50893e+16
9.45622e+16
1.04127e+17
1.13181e+17
1.21931e+17
1.31071e+17
1.39822e+17
1.48116e+17
1.56123e+17
1.64019e+17
1.7153e+17
1.78802e+17
1.85696e+17
1.92357e+17
1.98386e+17
2.0427e+17
2.09697e+17
2.14913e+17
2.19539e+17
2.23823e+17
2.2762e+17
2.30976e+17
2.34163e+17
2.36252e+17
2.38609e+17
2.40206e+17
2.41591e+17
2.4287e+17
2.43571e+17
2.44038e+17
2.43847e+17
2.4357e+17
2.42786e+17
2.41695e+17
2.4039e+17
2.38614e+17
2.36597e+17
2.3447e+17
2.31874e+17
2.29419e+17
2.26128e+17
2.229e+17
2.19281e+17
2.15691e+17
2.1191e+17
2.07742e+17
2.03337e+17
1.98905e+17
1.94085e+17
1.89149e+17
1.84041e+17
1.78819e+17
1.73399e+17
1.67533e+17
1.6157e+17
1.55684e+17
1.49582e+17
1.42749e+17
1.35638e+17
1.28649e+17
1.2144e+17
1.13711e+17
1.0603e+17
9.79403e+16
8.92524e+16
8.07289e+16
7.19769e+16
6.27075e+16
5.32489e+16
4.34513e+16
3.33067e+16
2.20427e+16
8.70888e+15
9.5493e+15
2.43884e+16
3.6795e+16
4.81306e+16
5.86854e+16
6.92498e+16
7.93234e+16
8.91327e+16
9.93084e+16
1.09046e+17
1.18374e+17
1.27876e+17
1.37279e+17
1.46636e+17
1.5535e+17
1.63666e+17
1.7195e+17
1.79681e+17
1.8711e+17
1.94296e+17
2.00969e+17
2.07403e+17
2.13515e+17
2.19453e+17
2.24434e+17
2.28926e+17
2.33215e+17
2.37071e+17
2.40431e+17
2.43478e+17
2.45712e+17
2.48e+17
2.49541e+17
2.51005e+17
2.51855e+17
2.52428e+17
2.52581e+17
2.52312e+17
2.5157e+17
2.50786e+17
2.49452e+17
2.47969e+17
2.46206e+17
2.43763e+17
2.41571e+17
2.38727e+17
2.35966e+17
2.32522e+17
2.29017e+17
2.25234e+17
2.21491e+17
2.17462e+17
2.13247e+17
2.08589e+17
2.03914e+17
1.99215e+17
1.9402e+17
1.8901e+17
1.83504e+17
1.78124e+17
1.72118e+17
1.66092e+17
1.59978e+17
1.53999e+17
1.47119e+17
1.4003e+17
1.32901e+17
1.25456e+17
1.17492e+17
1.09653e+17
1.01374e+17
9.25464e+16
8.37362e+16
7.46763e+16
6.52612e+16
5.5436e+16
4.5379e+16
3.47113e+16
2.29386e+16
9.08308e+15
9.9171e+15
2.54911e+16
3.85567e+16
5.01488e+16
6.12854e+16
7.23179e+16
8.28219e+16
9.32799e+16
1.03687e+17
1.13891e+17
1.23725e+17
1.33752e+17
1.43687e+17
1.53269e+17
1.62423e+17
1.71213e+17
1.79838e+17
1.87839e+17
1.95599e+17
2.02911e+17
2.09722e+17
2.16343e+17
2.22504e+17
2.28584e+17
2.33564e+17
2.3815e+17
2.42496e+17
2.46314e+17
2.49691e+17
2.52727e+17
2.55e+17
2.57068e+17
2.58424e+17
2.59634e+17
2.6051e+17
2.60867e+17
2.60729e+17
2.60123e+17
2.59394e+17
2.58208e+17
2.56755e+17
2.55139e+17
2.52973e+17
2.50478e+17
2.47697e+17
2.44648e+17
2.41465e+17
2.38045e+17
2.34483e+17
2.30631e+17
2.26664e+17
2.2224e+17
2.17878e+17
2.13108e+17
2.08266e+17
2.03419e+17
1.98234e+17
1.93192e+17
1.87606e+17
1.82129e+17
1.76337e+17
1.70188e+17
1.6388e+17
1.57675e+17
1.50862e+17
1.4374e+17
1.36516e+17
1.28953e+17
1.21029e+17
1.13043e+17
1.04711e+17
9.56369e+16
8.66831e+16
7.72269e+16
6.76844e+16
5.7583e+16
4.71632e+16
3.60832e+16
2.38811e+16
9.47175e+15
1.0372e+16
2.66038e+16
4.01097e+16
5.22445e+16
6.40263e+16
7.53885e+16
8.63247e+16
9.71958e+16
1.07859e+17
1.18625e+17
1.29004e+17
1.39531e+17
1.49957e+17
1.59846e+17
1.69526e+17
1.78787e+17
1.8754e+17
1.95934e+17
2.03763e+17
2.11216e+17
2.18393e+17
2.25201e+17
2.31551e+17
2.37463e+17
2.42715e+17
2.47488e+17
2.51557e+17
2.55435e+17
2.58825e+17
2.61703e+17
2.63881e+17
2.65764e+17
2.67324e+17
2.68246e+17
2.68657e+17
2.6885e+17
2.68375e+17
2.67786e+17
2.66557e+17
2.65196e+17
2.63431e+17
2.61523e+17
2.59107e+17
2.56483e+17
2.53219e+17
2.5019e+17
2.46522e+17
2.43112e+17
2.39337e+17
2.35326e+17
2.31006e+17
2.26303e+17
2.21696e+17
2.16914e+17
2.11976e+17
2.06752e+17
2.01467e+17
1.96386e+17
1.90864e+17
1.85253e+17
1.7948e+17
1.73394e+17
1.66952e+17
1.60897e+17
1.53889e+17
1.46785e+17
1.39451e+17
1.32012e+17
1.24065e+17
1.1604e+17
1.0752e+17
9.8588e+16
8.94935e+16
7.98576e+16
7.01072e+16
5.96397e+16
4.87952e+16
3.74024e+16
2.48314e+16
9.83316e+15
1.07866e+16
2.76143e+16
4.17572e+16
5.44922e+16
6.65689e+16
7.84141e+16
8.97748e+16
1.01063e+17
1.12338e+17
1.23721e+17
1.34571e+17
1.45642e+17
1.56295e+17
1.66391e+17
1.76431e+17
1.85858e+17
1.95096e+17
2.03725e+17
2.11785e+17
2.19523e+17
2.27052e+17
2.34053e+17
2.4053e+17
2.46364e+17
2.5154e+17
2.56339e+17
2.6054e+17
2.64076e+17
2.67277e+17
2.70012e+17
2.72384e+17
2.73922e+17
2.75288e+17
2.76092e+17
2.76311e+17
2.76128e+17
2.7546e+17
2.74682e+17
2.73219e+17
2.71682e+17
2.69476e+17
2.67195e+17
2.64495e+17
2.61719e+17
2.58332e+17
2.54919e+17
2.51087e+17
2.47415e+17
2.43526e+17
2.39123e+17
2.34813e+17
2.30122e+17
2.25365e+17
2.20296e+17
2.1535e+17
2.10034e+17
2.04326e+17
1.99128e+17
1.93666e+17
1.8784e+17
1.82073e+17
1.76088e+17
1.69565e+17
1.63457e+17
1.56686e+17
1.49572e+17
1.42136e+17
1.3461e+17
1.26827e+17
1.18566e+17
1.10057e+17
1.013e+17
9.20468e+16
8.22472e+16
7.23673e+16
6.16141e+16
5.05522e+16
3.87809e+16
2.56998e+16
1.00686e+16
1.11553e+16
2.85009e+16
4.32555e+16
5.64464e+16
6.90718e+16
8.14156e+16
9.33798e+16
1.05143e+17
1.16898e+17
1.28585e+17
1.39917e+17
1.51364e+17
1.62383e+17
1.73032e+17
1.83405e+17
1.93251e+17
2.02597e+17
2.11248e+17
2.19828e+17
2.27966e+17
2.35659e+17
2.4258e+17
2.49061e+17
2.5482e+17
2.59925e+17
2.64705e+17
2.68865e+17
2.7239e+17
2.75448e+17
2.78185e+17
2.80154e+17
2.81702e+17
2.82836e+17
2.8338e+17
2.83444e+17
2.83051e+17
2.82042e+17
2.80868e+17
2.79229e+17
2.77301e+17
2.75139e+17
2.7269e+17
2.69789e+17
2.6655e+17
2.63062e+17
2.59297e+17
2.55152e+17
2.51161e+17
2.46883e+17
2.42422e+17
2.37907e+17
2.3315e+17
2.28159e+17
2.23169e+17
2.17881e+17
2.12687e+17
2.06889e+17
2.01346e+17
1.95632e+17
1.89774e+17
1.83898e+17
1.78111e+17
1.71531e+17
1.65187e+17
1.5858e+17
1.51737e+17
1.44378e+17
1.36793e+17
1.29034e+17
1.20907e+17
1.12428e+17
1.03587e+17
9.40268e+16
8.43638e+16
7.42301e+16
6.33744e+16
5.21556e+16
4.00331e+16
2.6524e+16
1.03847e+16
1.15005e+16
2.93982e+16
4.46569e+16
5.84863e+16
7.15856e+16
8.43722e+16
9.68484e+16
1.09159e+17
1.21256e+17
1.33483e+17
1.45517e+17
1.57216e+17
1.68565e+17
1.79535e+17
1.90179e+17
2.00254e+17
2.09804e+17
2.18795e+17
2.27846e+17
2.35838e+17
2.43418e+17
2.50673e+17
2.57067e+17
2.62898e+17
2.68196e+17
2.72946e+17
2.77086e+17
2.80507e+17
2.83493e+17
2.85975e+17
2.87946e+17
2.8924e+17
2.89869e+17
2.9013e+17
2.90039e+17
2.89225e+17
2.88325e+17
2.86777e+17
2.84896e+17
2.8272e+17
2.80066e+17
2.77288e+17
2.74018e+17
2.7077e+17
2.66823e+17
2.62871e+17
2.58781e+17
2.5454e+17
2.49979e+17
2.45263e+17
2.40291e+17
2.35398e+17
2.30182e+17
2.25076e+17
2.19869e+17
2.1436e+17
2.08732e+17
2.02932e+17
1.97247e+17
1.91221e+17
1.85228e+17
1.7938e+17
1.73056e+17
1.66589e+17
1.60082e+17
1.53241e+17
1.46104e+17
1.38567e+17
1.30884e+17
1.2272e+17
1.14348e+17
1.05711e+17
9.61376e+16
8.64875e+16
7.60946e+16
6.51342e+16
5.36134e+16
4.11955e+16
2.73096e+16
1.07385e+16
1.18479e+16
3.02573e+16
4.60932e+16
6.05131e+16
7.40522e+16
8.71677e+16
1.00161e+17
1.13002e+17
1.25734e+17
1.38165e+17
1.50619e+17
1.62814e+17
1.74536e+17
1.86001e+17
1.96897e+17
2.07076e+17
2.16989e+17
2.26265e+17
2.35371e+17
2.4372e+17
2.51531e+17
2.58632e+17
2.65161e+17
2.70994e+17
2.76374e+17
2.80716e+17
2.84853e+17
2.8807e+17
2.90836e+17
2.93152e+17
2.94772e+17
2.95833e+17
2.96383e+17
2.96291e+17
2.95697e+17
2.95007e+17
2.93549e+17
2.91988e+17
2.89646e+17
2.87227e+17
2.8433e+17
2.8121e+17
2.7774e+17
2.74131e+17
2.70181e+17
2.65929e+17
2.61335e+17
2.57221e+17
2.52148e+17
2.47492e+17
2.42308e+17
2.37236e+17
2.31717e+17
2.26456e+17
2.21084e+17
2.15657e+17
2.09949e+17
2.0426e+17
1.98435e+17
1.92477e+17
1.86457e+17
1.80376e+17
1.74097e+17
1.67447e+17
1.60951e+17
1.54211e+17
1.47012e+17
1.39615e+17
1.3196e+17
1.24083e+17
1.15801e+17
1.0749e+17
9.80897e+16
8.826e+16
7.78656e+16
6.68053e+16
5.51035e+16
4.23172e+16
2.80012e+16
1.1041e+16
1.21793e+16
3.11657e+16
4.74887e+16
6.2421e+16
7.64059e+16
8.99568e+16
1.0351e+17
1.16866e+17
1.30101e+17
1.43068e+17
1.5602e+17
1.68426e+17
1.80643e+17
1.92181e+17
2.03267e+17
2.13972e+17
2.24065e+17
2.33803e+17
2.42946e+17
2.51553e+17
2.59243e+17
2.66291e+17
2.72962e+17
2.7888e+17
2.84019e+17
2.88578e+17
2.92409e+17
2.95397e+17
2.98089e+17
2.9997e+17
3.01479e+17
3.02204e+17
3.02218e+17
3.01874e+17
3.01053e+17
3.00073e+17
2.98263e+17
2.96226e+17
2.93837e+17
2.91241e+17
2.87922e+17
2.84436e+17
2.80842e+17
2.76998e+17
2.72576e+17
2.682e+17
2.63435e+17
2.5916e+17
2.54104e+17
2.4901e+17
2.43826e+17
2.38503e+17
2.33026e+17
2.27482e+17
2.21852e+17
2.1636e+17
2.10594e+17
2.04727e+17
1.98925e+17
1.92962e+17
1.86826e+17
1.80742e+17
1.74653e+17
1.68163e+17
1.61549e+17
1.54991e+17
1.47871e+17
1.40436e+17
1.32967e+17
1.25305e+17
1.17236e+17
1.08826e+17
9.96583e+16
8.98176e+16
7.94676e+16
6.81742e+16
5.63818e+16
4.33403e+16
2.8728e+16
1.12952e+16
1.25246e+16
3.21188e+16
4.89616e+16
6.42952e+16
7.87405e+16
9.28419e+16
1.06952e+17
1.20814e+17
1.34413e+17
1.48081e+17
1.61261e+17
1.73957e+17
1.86487e+17
1.98353e+17
2.09709e+17
2.20737e+17
2.31077e+17
2.40975e+17
2.5042e+17
2.58956e+17
2.66739e+17
2.73976e+17
2.8067e+17
2.86541e+17
2.91274e+17
2.95655e+17
2.99372e+17
3.02077e+17
3.04453e+17
3.0612e+17
3.07236e+17
3.07687e+17
3.07744e+17
3.07131e+17
3.06238e+17
3.04645e+17
3.0268e+17
3.00204e+17
2.97535e+17
2.94519e+17
2.90919e+17
2.87177e+17
2.83302e+17
2.79008e+17
2.74577e+17
2.70082e+17
2.65394e+17
2.60442e+17
2.55428e+17
2.50097e+17
2.44848e+17
2.39239e+17
2.3378e+17
2.28211e+17
2.2242e+17
2.16485e+17
2.10919e+17
2.04961e+17
1.99009e+17
1.92954e+17
1.86779e+17
1.80793e+17
1.74747e+17
1.68291e+17
1.61783e+17
1.54992e+17
1.47917e+17
1.4095e+17
1.33394e+17
1.25878e+17
1.18003e+17
1.09917e+17
1.00902e+17
9.12739e+16
8.08309e+16
6.94054e+16
5.75851e+16
4.44567e+16
2.95205e+16
1.16011e+16
1.28634e+16
3.31005e+16
5.05211e+16
6.62076e+16
8.12215e+16
9.59439e+16
1.10449e+17
1.24916e+17
1.38885e+17
1.52819e+17
1.66439e+17
1.79533e+17
1.92438e+17
2.0437e+17
2.16231e+17
2.27558e+17
2.38103e+17
2.48253e+17
2.57702e+17
2.66295e+17
2.74262e+17
2.81528e+17
2.88188e+17
2.9353e+17
2.98365e+17
3.02623e+17
3.06006e+17
3.08403e+17
3.10635e+17
3.12236e+17
3.12866e+17
3.13168e+17
3.12817e+17
3.11976e+17
3.10641e+17
3.08712e+17
3.06212e+17
3.03389e+17
3.00332e+17
2.9697e+17
2.93463e+17
2.89443e+17
2.85222e+17
2.80747e+17
2.76252e+17
2.71499e+17
2.66642e+17
2.61599e+17
2.56203e+17
2.50852e+17
2.45303e+17
2.39813e+17
2.34062e+17
2.28343e+17
2.226e+17
2.16573e+17
2.10596e+17
2.0467e+17
1.98656e+17
1.92507e+17
1.8642e+17
1.80235e+17
1.74227e+17
1.67928e+17
1.61339e+17
1.54901e+17
1.48043e+17
1.40963e+17
1.33565e+17
1.26259e+17
1.18405e+17
1.10489e+17
1.01766e+17
9.21986e+16
8.17557e+16
7.04768e+16
5.85918e+16
4.52663e+16
3.01171e+16
1.18768e+16
1.31862e+16
3.40639e+16
5.19166e+16
6.82157e+16
8.37097e+16
9.87758e+16
1.13784e+17
1.28755e+17
1.43177e+17
1.5752e+17
1.71586e+17
1.85255e+17
1.98223e+17
2.10613e+17
2.22791e+17
2.34241e+17
2.4499e+17
2.55289e+17
2.64809e+17
2.73515e+17
2.81434e+17
2.88825e+17
2.95025e+17
3.00511e+17
3.05118e+17
3.09051e+17
3.12308e+17
3.14684e+17
3.16736e+17
3.17805e+17
3.18173e+17
3.1792e+17
3.17243e+17
3.1609e+17
3.14004e+17
3.1187e+17
3.09026e+17
3.06082e+17
3.02669e+17
2.99016e+17
2.95318e+17
2.9098e+17
2.86834e+17
2.82168e+17
2.77461e+17
2.72445e+17
2.67305e+17
2.62247e+17
2.57017e+17
2.51432e+17
2.45831e+17
2.39998e+17
2.34209e+17
2.28183e+17
2.2229e+17
2.16185e+17
2.10222e+17
2.04217e+17
1.98166e+17
1.91984e+17
1.85652e+17
1.79279e+17
1.73254e+17
1.66992e+17
1.60544e+17