/*--------------------------------*- C++ -*----------------------------------*\
  =========                 |
  \\      /  F ield         | OpenFOAM: The Open Source CFD Toolbox
   \\    /   O peration     | Website:  https://openfoam.org
    \\  /    A nd           | Version:  6
     \\/     M anipulation  |
\*---------------------------------------------------------------------------*/
FoamFile
{
    version     2.0;
    format      ascii;
    class       volScalarField;
    location    "600";
    object      dnp4_s;
}
// * * * * * * * * * * * * * * * * * * * * * * * * * * * * * * * * * * * * * //

dimensions      [0 -3 -1 0 0 0 0];

internalField   nonuniform List<scalar> 
6400
(
2.09972e+14
3.40919e+14
4.61218e+14
5.83801e+14
7.4124e+14
8.63591e+14
9.52962e+14
1.09493e+15
1.20235e+15
1.33665e+15
1.41061e+15
1.59243e+15
1.64596e+15
1.73366e+15
1.88582e+15
1.96704e+15
2.13696e+15
2.1462e+15
2.30964e+15
2.34148e+15
2.51425e+15
2.55457e+15
2.55613e+15
2.63091e+15
2.7604e+15
2.75451e+15
2.86902e+15
2.89043e+15
2.98258e+15
3.04701e+15
3.26634e+15
3.11783e+15
3.18808e+15
3.2367e+15
3.30391e+15
3.20083e+15
3.35974e+15
3.27177e+15
3.29184e+15
3.22847e+15
3.41064e+15
3.26208e+15
3.37299e+15
3.22805e+15
3.21441e+15
3.19157e+15
3.24399e+15
3.2158e+15
3.07643e+15
3.17052e+15
3.0247e+15
3.13678e+15
2.94254e+15
2.89607e+15
2.80989e+15
2.76082e+15
2.67121e+15
2.63813e+15
2.50002e+15
2.42757e+15
2.32554e+15
2.24826e+15
2.15384e+15
2.05475e+15
1.98638e+15
1.83668e+15
1.80825e+15
1.6068e+15
1.60298e+15
1.44528e+15
1.33803e+15
1.21814e+15
1.06526e+15
9.75947e+14
8.38456e+14
7.84913e+14
6.06e+14
4.77973e+14
3.70218e+14
2.11324e+14
3.18667e+14
4.99147e+14
7.35613e+14
9.63124e+14
1.13153e+15
1.34442e+15
1.48002e+15
1.69189e+15
1.94949e+15
2.01712e+15
2.20116e+15
2.39186e+15
2.6465e+15
2.68264e+15
2.904e+15
3.1463e+15
3.25911e+15
3.43351e+15
3.49928e+15
3.67366e+15
3.75532e+15
3.97767e+15
3.9808e+15
4.08364e+15
4.29481e+15
4.34268e+15
4.47011e+15
4.49111e+15
4.75695e+15
4.69504e+15
4.81929e+15
4.75245e+15
5.06611e+15
4.87548e+15
4.98226e+15
4.99314e+15
5.0741e+15
5.06596e+15
5.17732e+15
5.12881e+15
5.19988e+15
5.21893e+15
5.16877e+15
5.06488e+15
4.96999e+15
4.93852e+15
5.02884e+15
4.85156e+15
4.876e+15
4.82035e+15
4.77124e+15
4.71323e+15
4.64796e+15
4.48644e+15
4.34463e+15
4.22086e+15
4.11642e+15
3.99158e+15
3.9474e+15
3.7427e+15
3.58887e+15
3.45119e+15
3.29778e+15
3.09972e+15
3.06639e+15
2.92623e+15
2.72037e+15
2.54173e+15
2.35676e+15
2.28576e+15
2.06405e+15
1.85257e+15
1.6267e+15
1.47213e+15
1.32587e+15
1.10775e+15
9.25461e+14
7.13267e+14
5.953e+14
3.09192e+14
4.33802e+14
7.033e+14
9.48082e+14
1.28527e+15
1.45164e+15
1.71672e+15
1.9585e+15
2.22765e+15
2.5226e+15
2.65471e+15
2.87041e+15
3.10992e+15
3.43443e+15
3.55368e+15
3.93118e+15
4.15633e+15
4.28658e+15
4.46899e+15
4.68626e+15
4.92831e+15
4.97644e+15
5.30454e+15
5.26068e+15
5.43178e+15
5.68069e+15
5.78855e+15
5.95966e+15
6.2573e+15
6.23844e+15
6.22352e+15
6.34162e+15
6.53974e+15
6.56367e+15
6.60971e+15
6.673e+15
6.76399e+15
6.81619e+15
6.85099e+15
6.64967e+15
6.73919e+15
6.69839e+15
6.80583e+15
6.8009e+15
6.81263e+15
6.65461e+15
6.5527e+15
6.57248e+15
6.4693e+15
6.36454e+15
6.3752e+15
6.3469e+15
6.19927e+15
6.13676e+15
5.95295e+15
5.76928e+15
5.64173e+15
5.38282e+15
5.39106e+15
5.25614e+15
5.02531e+15
4.717e+15
4.66459e+15
4.45777e+15
4.12178e+15
4.00364e+15
3.87922e+15
3.60186e+15
3.38625e+15
3.10545e+15
3.01406e+15
2.78632e+15
2.55999e+15
2.1774e+15
2.08925e+15
1.74686e+15
1.48147e+15
1.28587e+15
9.64183e+14
7.39026e+14
4.37635e+14
5.26432e+14
8.51622e+14
1.24302e+15
1.58461e+15
1.88951e+15
2.17827e+15
2.48592e+15
2.76334e+15
3.1887e+15
3.42806e+15
3.63558e+15
3.96978e+15
4.155e+15
4.60004e+15
4.81533e+15
5.09794e+15
5.34534e+15
5.55423e+15
5.91823e+15
6.04202e+15
6.40935e+15
6.56613e+15
6.63079e+15
6.91193e+15
7.07682e+15
7.35534e+15
7.23805e+15
7.49e+15
7.70054e+15
7.72043e+15
8.03817e+15
8.07697e+15
8.05708e+15
8.28667e+15
8.27235e+15
8.36374e+15
8.46081e+15
8.48785e+15
8.38182e+15
8.37693e+15
8.44915e+15
8.52088e+15
8.46005e+15
8.25419e+15
8.27623e+15
8.12136e+15
8.03894e+15
8.10363e+15
8.00497e+15
7.90067e+15
7.81507e+15
7.7159e+15
7.57307e+15
7.36689e+15
7.20565e+15
7.03299e+15
6.87875e+15
6.64177e+15
6.42159e+15
6.28064e+15
5.96768e+15
5.74771e+15
5.45852e+15
5.22695e+15
5.07763e+15
4.75154e+15
4.4983e+15
4.32652e+15
3.95579e+15
3.70871e+15
3.45217e+15
3.15203e+15
2.80587e+15
2.51616e+15
2.22295e+15
1.84274e+15
1.57418e+15
1.22525e+15
8.61264e+14
5.36135e+14
6.18943e+14
1.1319e+15
1.43027e+15
1.85264e+15
2.20656e+15
2.64034e+15
2.98552e+15
3.35553e+15
3.71129e+15
4.09534e+15
4.47027e+15
4.68587e+15
4.98526e+15
5.47276e+15
5.87902e+15
6.15779e+15
6.45892e+15
6.75356e+15
6.91279e+15
7.24326e+15
7.44111e+15
7.73693e+15
7.98345e+15
8.22919e+15
8.53017e+15
8.7437e+15
8.8701e+15
9.03008e+15
9.15664e+15
9.41185e+15
9.42316e+15
9.47153e+15
9.702e+15
9.60077e+15
9.81101e+15
9.85263e+15
9.93808e+15
1.02078e+16
1.01623e+16
1.02556e+16
1.01331e+16
1.01936e+16
1.01714e+16
9.98761e+15
9.69245e+15
9.82437e+15
9.81621e+15
9.59929e+15
9.70932e+15
9.4404e+15
9.39614e+15
9.02292e+15
8.99429e+15
9.09802e+15
8.77987e+15
8.51975e+15
8.3172e+15
7.98933e+15
7.7033e+15
7.53597e+15
7.2518e+15
6.78027e+15
6.52494e+15
6.24053e+15
6.00085e+15
5.72e+15
5.4485e+15
5.25559e+15
4.72634e+15
4.46159e+15
4.05706e+15
3.66842e+15
3.41336e+15
2.9243e+15
2.52317e+15
2.20557e+15
1.84753e+15
1.484e+15
1.01109e+15
6.17149e+14
7.46434e+14
1.27013e+15
1.73359e+15
2.21864e+15
2.54889e+15
3.01437e+15
3.44734e+15
3.93307e+15
4.32672e+15
4.73738e+15
5.12076e+15
5.46418e+15
5.87901e+15
6.40273e+15
6.81047e+15
6.98063e+15
7.48323e+15
7.71495e+15
7.95679e+15
8.48084e+15
8.82748e+15
9.04311e+15
9.22155e+15
9.57178e+15
9.80642e+15
1.01237e+16
1.02651e+16
1.04834e+16
1.06833e+16
1.09022e+16
1.08342e+16
1.10458e+16
1.13014e+16
1.14053e+16
1.15148e+16
1.1598e+16
1.17008e+16
1.18821e+16
1.20489e+16
1.17076e+16
1.18116e+16
1.18228e+16
1.16474e+16
1.16697e+16
1.15794e+16
1.15882e+16
1.14101e+16
1.1282e+16
1.12091e+16
1.10263e+16
1.0899e+16
1.06734e+16
1.03883e+16
1.03219e+16
1.01005e+16
9.88759e+15
9.66926e+15
9.28367e+15
8.97135e+15
8.80556e+15
8.52123e+15
8.04357e+15
7.77294e+15
7.27603e+15
7.00034e+15
6.71227e+15
6.42704e+15
5.93659e+15
5.52165e+15
5.18962e+15
4.7458e+15
4.29255e+15
3.87592e+15
3.41051e+15
2.95668e+15
2.60689e+15
2.16763e+15
1.73072e+15
1.17719e+15
7.38742e+14
8.30238e+14
1.38728e+15
1.96906e+15
2.50136e+15
2.89106e+15
3.39707e+15
3.89296e+15
4.42975e+15
4.87122e+15
5.43256e+15
5.81603e+15
6.25796e+15
6.74707e+15
7.19245e+15
7.54158e+15
8.05482e+15
8.30371e+15
8.82718e+15
9.33046e+15
9.68032e+15
9.91883e+15
1.03333e+16
1.04851e+16
1.06981e+16
1.10591e+16
1.14953e+16
1.19374e+16
1.20668e+16
1.19289e+16
1.23549e+16
1.25478e+16
1.26877e+16
1.27939e+16
1.28699e+16
1.3098e+16
1.31813e+16
1.3495e+16
1.34631e+16
1.32781e+16
1.33854e+16
1.34176e+16
1.34764e+16
1.3395e+16
1.34041e+16
1.31728e+16
1.31007e+16
1.31095e+16
1.30061e+16
1.27563e+16
1.25829e+16
1.22794e+16
1.21097e+16
1.22348e+16
1.16317e+16
1.13451e+16
1.14237e+16
1.11151e+16
1.06066e+16
1.01188e+16
1.00716e+16
9.75308e+15
9.32291e+15
8.77459e+15
8.35078e+15
7.99843e+15
7.55366e+15
7.45462e+15
6.91718e+15
6.3099e+15
5.99359e+15
5.36898e+15
4.91533e+15
4.42894e+15
3.93379e+15
3.33762e+15
2.94119e+15
2.37452e+15
2.00444e+15
1.43925e+15
8.89519e+14
9.35243e+14
1.60487e+15
2.24369e+15
2.80238e+15
3.28615e+15
3.90332e+15
4.45947e+15
4.88621e+15
5.56251e+15
6.09118e+15
6.52577e+15
7.05009e+15
7.68506e+15
7.97915e+15
8.47781e+15
9.06998e+15
9.53015e+15
9.9824e+15
1.03065e+16
1.08042e+16
1.10667e+16
1.14243e+16
1.18827e+16
1.21444e+16
1.24712e+16
1.2757e+16
1.32729e+16
1.31871e+16
1.37913e+16
1.40686e+16
1.39864e+16
1.41351e+16
1.42709e+16
1.44371e+16
1.47067e+16
1.46476e+16
1.4909e+16
1.50421e+16
1.51152e+16
1.51033e+16
1.51387e+16
1.50068e+16
1.49271e+16
1.52132e+16
1.48148e+16
1.45089e+16
1.4681e+16
1.44582e+16
1.43521e+16
1.39324e+16
1.38771e+16
1.38014e+16
1.32794e+16
1.30386e+16
1.27528e+16
1.25729e+16
1.22845e+16
1.21325e+16
1.16703e+16
1.10928e+16
1.07372e+16
1.02544e+16
9.81506e+15
9.25857e+15
9.02867e+15
8.56235e+15
8.1314e+15
7.73859e+15
7.27708e+15
6.64726e+15
6.07736e+15
5.49455e+15
5.03393e+15
4.36186e+15
3.86695e+15
3.2624e+15
2.68393e+15
2.2502e+15
1.63571e+15
9.60814e+14
1.01378e+15
1.73638e+15
2.52235e+15
3.11546e+15
3.77266e+15
4.22242e+15
4.93751e+15
5.56801e+15
6.07261e+15
6.69373e+15
7.372e+15
7.6929e+15
8.43203e+15
9.11335e+15
9.67429e+15
9.78542e+15
1.04231e+16
1.12436e+16
1.15098e+16
1.19127e+16
1.23918e+16
1.27078e+16
1.29364e+16
1.35791e+16
1.37673e+16
1.41287e+16
1.46136e+16
1.47295e+16
1.49758e+16
1.52806e+16
1.56215e+16
1.57468e+16
1.61636e+16
1.61962e+16
1.61967e+16
1.63669e+16
1.65585e+16
1.67438e+16
1.6863e+16
1.67891e+16
1.67112e+16
1.67253e+16
1.64889e+16
1.64324e+16
1.63935e+16
1.60959e+16
1.60246e+16
1.57992e+16
1.58325e+16
1.56339e+16
1.52966e+16
1.4985e+16
1.46686e+16
1.4522e+16
1.41831e+16
1.39213e+16
1.36935e+16
1.33197e+16
1.2722e+16
1.24158e+16
1.17521e+16
1.15751e+16
1.10948e+16
1.05213e+16
9.78204e+15
9.35415e+15
9.03963e+15
8.41103e+15
7.94595e+15
7.28559e+15
6.83018e+15
6.27785e+15
5.5569e+15
4.863e+15
4.27855e+15
3.6804e+15
3.01892e+15
2.45912e+15
1.7156e+15
1.07768e+15
1.14006e+15
1.83987e+15
2.68102e+15
3.38874e+15
4.11457e+15
4.70451e+15
5.40855e+15
5.99283e+15
6.70585e+15
7.39218e+15
8.13374e+15
8.64323e+15
9.08127e+15
9.9127e+15
1.04953e+16
1.10515e+16
1.16069e+16
1.21398e+16
1.26508e+16
1.31349e+16
1.37185e+16
1.39485e+16
1.44018e+16
1.49332e+16
1.53397e+16
1.58332e+16
1.6071e+16
1.63977e+16
1.67209e+16
1.69378e+16
1.72429e+16
1.74488e+16
1.76913e+16
1.77396e+16
1.80537e+16
1.79478e+16
1.82161e+16
1.81959e+16
1.81578e+16
1.83156e+16
1.84929e+16
1.83071e+16
1.82835e+16
1.80872e+16
1.80463e+16
1.77908e+16
1.76592e+16
1.74487e+16
1.73493e+16
1.71084e+16
1.69131e+16
1.66244e+16
1.63352e+16
1.60492e+16
1.55368e+16
1.55019e+16
1.49339e+16
1.42994e+16
1.40608e+16
1.35447e+16
1.29743e+16
1.23345e+16
1.17874e+16
1.13183e+16
1.08921e+16
1.04926e+16
9.86834e+15
9.32449e+15
8.46948e+15
8.04349e+15
7.43511e+15
6.75145e+15
5.87424e+15
5.30257e+15
4.62435e+15
4.03459e+15
3.31454e+15
2.61454e+15
1.93922e+15
1.12252e+15
1.28959e+15
2.02183e+15
2.90678e+15
3.64803e+15
4.2955e+15
5.12148e+15
5.88185e+15
6.5159e+15
7.37393e+15
8.06456e+15
9.01833e+15
9.41549e+15
9.81692e+15
1.06242e+16
1.13408e+16
1.18871e+16
1.25414e+16
1.30964e+16
1.37145e+16
1.44413e+16
1.48904e+16
1.54259e+16
1.5709e+16
1.58289e+16
1.65067e+16
1.70511e+16
1.75585e+16
1.76936e+16
1.82608e+16
1.8356e+16
1.85836e+16
1.87216e+16
1.89671e+16
1.92982e+16
1.95973e+16
1.96599e+16
1.96947e+16
2.00097e+16
1.9842e+16
2.02985e+16
2.01372e+16
1.99341e+16
2.00567e+16
1.97625e+16
1.96292e+16
1.92012e+16
1.93067e+16
1.91479e+16
1.88579e+16
1.86958e+16
1.84933e+16
1.80382e+16
1.76707e+16
1.72996e+16
1.70466e+16
1.67394e+16
1.58797e+16
1.57197e+16
1.52075e+16
1.47262e+16
1.42745e+16
1.34333e+16
1.30402e+16
1.23933e+16
1.18636e+16
1.15132e+16
1.07215e+16
9.95407e+15
9.45149e+15
8.66229e+15
8.06799e+15
7.30209e+15
6.51578e+15
5.83422e+15
5.13083e+15
4.40275e+15
3.52786e+15
2.8783e+15
2.0662e+15
1.21103e+15
1.4766e+15
2.23521e+15
3.0716e+15
3.95819e+15
4.75393e+15
5.49786e+15
6.35306e+15
7.05735e+15
7.75947e+15
8.62334e+15
9.45399e+15
1.0179e+16
1.06053e+16
1.1408e+16
1.21541e+16
1.297e+16
1.37389e+16
1.42682e+16
1.48737e+16
1.54454e+16
1.59249e+16
1.66958e+16
1.67911e+16
1.74257e+16
1.80282e+16
1.842e+16
1.89213e+16
1.91944e+16
1.93183e+16
1.99058e+16
2.02683e+16
2.05542e+16
2.09624e+16
2.09909e+16
2.10166e+16
2.11785e+16
2.16498e+16
2.16213e+16
2.13249e+16
2.15455e+16
2.15634e+16
2.1754e+16
2.15086e+16
2.13034e+16
2.09964e+16
2.10079e+16
2.07999e+16
2.04637e+16
2.04121e+16
2.01081e+16
1.99259e+16
1.95454e+16
1.90917e+16
1.89272e+16
1.85324e+16
1.79414e+16
1.75898e+16
1.69259e+16
1.63471e+16
1.60108e+16
1.55539e+16
1.48033e+16
1.42227e+16
1.35512e+16
1.29163e+16
1.22123e+16
1.16174e+16
1.07763e+16
1.00314e+16
9.39207e+15
8.62772e+15
8.00726e+15
7.06257e+15
6.28474e+15
5.4937e+15
4.69398e+15
3.96062e+15
3.09772e+15
2.21113e+15
1.32996e+15
1.53035e+15
2.43054e+15
3.35991e+15
4.19244e+15
5.08405e+15
5.96776e+15
6.79048e+15
7.84303e+15
8.37806e+15
9.27296e+15
1.01393e+16
1.09316e+16
1.16961e+16
1.24362e+16
1.30183e+16
1.39456e+16
1.45126e+16
1.51263e+16
1.5784e+16
1.64099e+16
1.70617e+16
1.80365e+16
1.8301e+16
1.88498e+16
1.96368e+16
1.9947e+16
2.03931e+16
2.06872e+16
2.10819e+16
2.14783e+16
2.18256e+16
2.19057e+16
2.21766e+16
2.28507e+16
2.2668e+16
2.30312e+16
2.30402e+16
2.2986e+16
2.31355e+16
2.309e+16
2.33497e+16
2.3047e+16
2.32335e+16
2.30477e+16
2.30618e+16
2.2766e+16
2.25133e+16
2.23826e+16
2.20956e+16
2.18426e+16
2.15588e+16
2.11201e+16
2.08294e+16
2.02329e+16
1.9859e+16
1.9425e+16
1.89166e+16
1.83006e+16
1.76897e+16
1.71172e+16
1.65646e+16
1.62407e+16
1.52843e+16
1.47724e+16
1.39259e+16
1.3217e+16
1.24236e+16
1.14537e+16
1.09658e+16
1.00593e+16
9.23568e+15
8.50194e+15
7.61052e+15
6.61448e+15
5.92638e+15
4.94311e+15
4.19859e+15
3.31585e+15
2.42458e+15
1.38655e+15
1.61927e+15
2.67755e+15
3.60278e+15
4.4763e+15
5.51871e+15
6.44629e+15
7.23737e+15
8.16371e+15
8.8363e+15
9.98271e+15
1.09091e+16
1.16894e+16
1.26347e+16
1.34246e+16
1.39764e+16
1.47056e+16
1.58337e+16
1.62648e+16
1.72615e+16
1.77372e+16
1.86586e+16
1.89207e+16
1.95563e+16
2.00886e+16
2.08535e+16
2.16474e+16
2.18028e+16
2.23394e+16
2.23699e+16
2.30236e+16
2.31491e+16
2.36073e+16
2.40411e+16
2.43217e+16
2.41482e+16
2.46311e+16
2.4778e+16
2.47758e+16
2.49879e+16
2.48934e+16
2.5082e+16
2.49738e+16
2.48295e+16
2.46285e+16
2.43232e+16
2.40663e+16
2.39951e+16
2.37948e+16
2.36853e+16
2.33228e+16
2.2995e+16
2.27823e+16
2.20677e+16
2.17316e+16
2.1274e+16
2.07598e+16
2.0175e+16
1.98114e+16
1.89681e+16
1.83243e+16
1.78375e+16
1.71976e+16
1.64243e+16
1.57264e+16
1.48021e+16
1.3972e+16
1.32492e+16
1.2536e+16
1.17772e+16
1.08933e+16
9.77429e+15
9.09256e+15
8.19964e+15
7.17067e+15
6.16699e+15
5.42793e+15
4.34834e+15
3.48653e+15
2.52247e+15
1.51409e+15
1.59465e+15
2.77807e+15
3.77568e+15
4.89578e+15
5.86073e+15
6.87268e+15
7.87337e+15
8.74218e+15
9.53143e+15
1.06264e+16
1.1332e+16
1.24295e+16
1.34721e+16
1.42819e+16
1.4994e+16
1.57892e+16
1.67007e+16
1.7325e+16
1.80206e+16
1.88824e+16
1.97569e+16
2.01647e+16
2.07739e+16
2.1387e+16
2.22761e+16
2.2535e+16
2.31883e+16
2.38926e+16
2.41099e+16
2.45034e+16
2.51286e+16
2.52274e+16
2.56428e+16
2.59121e+16
2.62012e+16
2.60816e+16
2.64465e+16
2.63264e+16
2.67616e+16
2.66058e+16
2.65405e+16
2.64988e+16
2.66139e+16
2.60905e+16
2.61203e+16
2.5788e+16
2.55451e+16
2.53032e+16
2.51715e+16
2.4906e+16
2.45965e+16
2.40956e+16
2.3641e+16
2.32546e+16
2.27908e+16
2.20172e+16
2.12534e+16
2.08247e+16
2.01507e+16
1.95505e+16
1.89153e+16
1.81281e+16
1.7366e+16
1.6525e+16
1.56967e+16
1.48793e+16
1.41465e+16
1.3355e+16
1.25631e+16
1.13585e+16
1.06843e+16
9.70122e+15
8.59156e+15
7.74651e+15
6.7724e+15
5.85711e+15
4.71835e+15
3.77992e+15
2.73363e+15
1.6281e+15
1.69984e+15
2.94926e+15
3.9988e+15
5.06651e+15
6.07701e+15
7.27428e+15
8.35526e+15
9.3806e+15
1.014e+16
1.11001e+16
1.21752e+16
1.31869e+16
1.40647e+16
1.50427e+16
1.59078e+16
1.696e+16
1.76554e+16
1.83473e+16
1.92401e+16
1.98854e+16
2.09048e+16
2.14002e+16
2.21843e+16
2.30137e+16
2.3675e+16
2.40847e+16
2.50062e+16
2.46853e+16
2.54502e+16
2.59377e+16
2.61903e+16
2.68397e+16
2.69421e+16
2.76255e+16
2.75228e+16
2.7844e+16
2.81719e+16
2.78069e+16
2.82078e+16
2.80784e+16
2.79213e+16
2.82127e+16
2.80893e+16
2.78916e+16
2.79314e+16
2.76581e+16
2.7287e+16
2.67566e+16
2.67758e+16
2.64923e+16
2.58549e+16
2.57541e+16
2.50879e+16
2.43734e+16
2.3873e+16
2.33787e+16
2.24209e+16
2.22778e+16
2.14372e+16
2.06209e+16
2.00105e+16
1.94243e+16
1.87625e+16
1.74366e+16
1.68709e+16
1.58401e+16
1.49766e+16
1.40609e+16
1.30975e+16
1.22625e+16
1.11289e+16
1.01903e+16
9.3411e+15
8.21084e+15
7.13041e+15
6.29363e+15
5.00812e+15
4.01706e+15
2.87303e+15
1.67735e+15
1.70634e+15
3.09914e+15
4.28039e+15
5.42312e+15
6.39276e+15
7.48496e+15
8.79381e+15
9.88814e+15
1.08808e+16
1.18989e+16
1.30159e+16
1.41086e+16
1.48399e+16
1.5907e+16
1.69447e+16
1.78585e+16
1.87401e+16
1.94378e+16
2.05479e+16
2.11549e+16
2.19274e+16
2.26905e+16
2.34508e+16
2.42353e+16
2.49098e+16
2.53757e+16
2.62302e+16
2.64153e+16
2.7036e+16
2.76328e+16
2.78436e+16
2.83463e+16
2.84411e+16
2.87947e+16
2.91284e+16
2.93681e+16
2.95924e+16
2.9405e+16
2.97722e+16
2.98234e+16
2.97705e+16
2.9556e+16
2.96342e+16
2.95681e+16
2.92008e+16
2.91488e+16
2.89109e+16
2.82293e+16
2.8128e+16
2.78188e+16
2.75326e+16
2.71049e+16
2.66183e+16
2.59562e+16
2.50978e+16
2.45896e+16
2.37049e+16
2.32887e+16
2.26352e+16
2.19762e+16
2.11783e+16
2.02747e+16
1.96824e+16
1.84044e+16
1.74379e+16
1.67659e+16
1.57962e+16
1.49062e+16
1.39095e+16
1.2706e+16
1.18603e+16
1.08837e+16
9.76961e+15
8.78022e+15
7.61309e+15
6.47811e+15
5.38648e+15
4.16516e+15
3.05087e+15
1.79812e+15
1.91891e+15
3.3209e+15
4.44941e+15
5.74214e+15
6.89266e+15
8.05164e+15
9.19366e+15
1.0484e+16
1.14314e+16
1.25058e+16
1.35715e+16
1.46596e+16
1.56466e+16
1.69033e+16
1.79431e+16
1.87566e+16
1.98834e+16
2.04059e+16
2.16651e+16
2.25546e+16
2.30731e+16
2.38713e+16
2.44794e+16
2.5471e+16
2.61373e+16
2.65356e+16
2.7511e+16
2.7904e+16
2.81411e+16
2.91229e+16
2.92654e+16
2.95031e+16
3.0269e+16
3.02621e+16
3.04237e+16
3.08173e+16
3.10561e+16
3.12418e+16
3.11502e+16
3.12431e+16
3.11436e+16
3.14103e+16
3.13241e+16
3.08266e+16
3.08615e+16
3.07356e+16
3.04101e+16
2.99986e+16
2.9961e+16
2.93181e+16
2.87849e+16
2.83356e+16
2.77423e+16
2.70787e+16
2.65442e+16
2.59679e+16
2.5345e+16
2.44681e+16
2.39164e+16
2.28597e+16
2.20435e+16
2.14281e+16
2.02619e+16
1.94931e+16
1.85139e+16
1.77626e+16
1.65879e+16
1.56199e+16
1.45864e+16
1.3395e+16
1.27043e+16
1.14792e+16
1.01824e+16
9.15692e+15
8.07403e+15
6.89434e+15
5.65958e+15
4.36826e+15
3.17329e+15
1.89667e+15
2.05814e+15
3.36717e+15
4.70217e+15
5.98974e+15
7.3239e+15
8.57227e+15
9.68102e+15
1.08217e+16
1.18584e+16
1.31001e+16
1.44724e+16
1.52553e+16
1.65646e+16
1.76594e+16
1.86231e+16
1.95633e+16
2.07618e+16
2.15448e+16
2.25107e+16
2.35268e+16
2.42902e+16
2.51963e+16
2.60866e+16
2.65445e+16
2.71841e+16
2.80833e+16
2.86969e+16
2.95902e+16
2.97244e+16
3.04957e+16
3.09384e+16
3.13386e+16
3.16924e+16
3.17533e+16
3.2039e+16
3.21533e+16
3.2811e+16
3.2895e+16
3.29588e+16
3.29615e+16
3.32026e+16
3.28537e+16
3.29082e+16
3.23483e+16
3.23784e+16
3.21732e+16
3.18766e+16
3.14476e+16
3.1481e+16
3.07044e+16
3.03515e+16
2.95461e+16
2.93674e+16
2.87916e+16
2.80937e+16
2.74966e+16
2.65801e+16
2.55538e+16
2.4756e+16
2.4e+16
2.3626e+16
2.22361e+16
2.13596e+16
2.05112e+16
1.94768e+16
1.84801e+16
1.75685e+16
1.61878e+16
1.54336e+16
1.44479e+16
1.33213e+16
1.19543e+16
1.0717e+16
9.53334e+15
8.40111e+15
7.11368e+15
5.8742e+15
4.62543e+15
3.32834e+15
2.02139e+15
2.14952e+15
3.55786e+15
4.92363e+15
6.32755e+15
7.50959e+15
8.85603e+15
9.96323e+15
1.11346e+16
1.24277e+16
1.39871e+16
1.5082e+16
1.59232e+16
1.73283e+16
1.85912e+16
1.97148e+16
2.06728e+16
2.17232e+16
2.27566e+16
2.36461e+16
2.45184e+16
2.57219e+16
2.62705e+16
2.71313e+16
2.78549e+16
2.8831e+16
2.94438e+16
3.01615e+16
3.08126e+16
3.12228e+16
3.23202e+16
3.22226e+16
3.27752e+16
3.30683e+16
3.30312e+16
3.34999e+16
3.36912e+16
3.41509e+16
3.41562e+16
3.44219e+16
3.44745e+16
3.43435e+16
3.45018e+16
3.43042e+16
3.40592e+16
3.38774e+16
3.33321e+16
3.3562e+16
3.31225e+16
3.27471e+16
3.21374e+16
3.1489e+16
3.1206e+16
3.06258e+16
2.9916e+16
2.94314e+16
2.85418e+16
2.78404e+16
2.68392e+16
2.6121e+16
2.53412e+16
2.44173e+16
2.32686e+16
2.24039e+16
2.16035e+16
2.05839e+16
1.92137e+16
1.8153e+16
1.72919e+16
1.6034e+16
1.49839e+16
1.39293e+16
1.24562e+16
1.13445e+16
1.02214e+16
8.73278e+15
7.45082e+15
6.01927e+15
4.86186e+15
3.53771e+15
2.14673e+15
2.32127e+15
3.83669e+15
5.08634e+15
6.55422e+15
7.68691e+15
9.278e+15
1.06372e+16
1.16764e+16
1.33444e+16
1.45053e+16
1.54454e+16
1.68512e+16
1.78868e+16
1.94284e+16
2.06605e+16
2.15822e+16
2.283e+16
2.38041e+16
2.46424e+16
2.57189e+16
2.64163e+16
2.73589e+16
2.80552e+16
2.95104e+16
3.02615e+16
3.06552e+16
3.12281e+16
3.19528e+16
3.24614e+16
3.3268e+16
3.35502e+16
3.41356e+16
3.4383e+16
3.49217e+16
3.50386e+16
3.5301e+16
3.55494e+16
3.59467e+16
3.56015e+16
3.587e+16
3.5769e+16
3.55807e+16
3.60433e+16
3.53798e+16
3.55057e+16
3.509e+16
3.51655e+16
3.47458e+16
3.41941e+16
3.34242e+16
3.29071e+16
3.25176e+16
3.21555e+16
3.14026e+16
3.05003e+16
3.00109e+16
2.8929e+16
2.82065e+16
2.71778e+16
2.65432e+16
2.53449e+16
2.42891e+16
2.316e+16
2.26671e+16
2.1539e+16
2.02848e+16
1.92035e+16
1.81817e+16
1.66905e+16
1.56104e+16
1.4411e+16
1.30354e+16
1.17451e+16
1.05515e+16
9.19314e+15
7.74287e+15
6.45705e+15
5.06006e+15
3.62071e+15
2.23827e+15
2.30075e+15
3.96812e+15
5.54617e+15
6.7265e+15
8.11562e+15
9.70135e+15
1.09508e+16
1.23992e+16
1.36629e+16
1.50471e+16
1.61702e+16
1.74904e+16
1.88969e+16
2.00978e+16
2.13734e+16
2.25286e+16
2.38269e+16
2.48349e+16
2.5942e+16
2.69435e+16
2.77047e+16
2.861e+16
2.91463e+16
3.04686e+16
3.13579e+16
3.19027e+16
3.26154e+16
3.32627e+16
3.37811e+16
3.46497e+16
3.51309e+16
3.57028e+16
3.58728e+16
3.5951e+16
3.6499e+16
3.69264e+16
3.72771e+16
3.70875e+16
3.73379e+16
3.72944e+16
3.71391e+16
3.73385e+16
3.73822e+16
3.72507e+16
3.70548e+16
3.6541e+16
3.62457e+16
3.57166e+16
3.53629e+16
3.48317e+16
3.46307e+16
3.3969e+16
3.35027e+16
3.27333e+16
3.17715e+16
3.12792e+16
3.02632e+16
2.95966e+16
2.84844e+16
2.76378e+16
2.67639e+16
2.56649e+16
2.44726e+16
2.34832e+16
2.25655e+16
2.12806e+16
2.0182e+16
1.88872e+16
1.75164e+16
1.62793e+16
1.52297e+16
1.34975e+16
1.22851e+16
1.07765e+16
9.52543e+15
8.09244e+15
6.74576e+15
5.26835e+15
3.79522e+15
2.36247e+15
2.46509e+15
4.20206e+15
5.61649e+15
6.97556e+15
8.65953e+15
1.00912e+16
1.14168e+16
1.28277e+16
1.39626e+16
1.55129e+16
1.67436e+16
1.80991e+16
1.96202e+16
2.07833e+16
2.21928e+16
2.35835e+16
2.46255e+16
2.59343e+16
2.68709e+16
2.77285e+16
2.87727e+16
2.97361e+16
3.06732e+16
3.15073e+16
3.25316e+16
3.36178e+16
3.39544e+16
3.45715e+16
3.52958e+16
3.60962e+16
3.65507e+16
3.67793e+16
3.75638e+16
3.8069e+16
3.80599e+16
3.85662e+16
3.8562e+16
3.89627e+16
3.88595e+16
3.88461e+16
3.87141e+16
3.88251e+16
3.87736e+16
3.89816e+16
3.82824e+16
3.82696e+16
3.75359e+16
3.70902e+16
3.67401e+16
3.65155e+16
3.61008e+16
3.51657e+16
3.43508e+16
3.37422e+16
3.30135e+16
3.21487e+16
3.11752e+16
3.0455e+16
2.9472e+16
2.86138e+16
2.76784e+16
2.66663e+16
2.52526e+16
2.4566e+16
2.32165e+16
2.19732e+16
2.072e+16
1.96324e+16
1.81034e+16
1.70321e+16
1.5657e+16
1.40651e+16
1.28072e+16
1.12875e+16
9.98089e+15
8.41726e+15
6.85462e+15
5.42577e+15
4.01497e+15
2.48191e+15
2.57494e+15
4.31882e+15
5.91739e+15
7.48006e+15
8.86037e+15
1.04767e+16
1.1819e+16
1.32061e+16
1.46534e+16
1.63803e+16
1.75654e+16
1.91534e+16
2.05188e+16
2.15716e+16
2.30064e+16
2.40331e+16
2.54762e+16
2.67068e+16
2.7777e+16
2.87151e+16
2.98712e+16
3.09288e+16
3.20207e+16
3.29839e+16
3.36705e+16
3.45171e+16
3.55717e+16
3.59693e+16
3.6432e+16
3.68638e+16
3.79565e+16
3.8197e+16
3.85832e+16
3.9263e+16
3.9658e+16
3.99261e+16
3.98905e+16
4.03103e+16
4.02744e+16
4.0612e+16
4.03688e+16
4.02054e+16
3.98774e+16
4.00929e+16
3.977e+16
3.9555e+16
3.89171e+16
3.83344e+16
3.83962e+16
3.76704e+16
3.71976e+16
3.65185e+16
3.59926e+16
3.48896e+16
3.4345e+16
3.36613e+16
3.22532e+16
3.13973e+16
3.08316e+16
2.97263e+16
2.87294e+16
2.77443e+16
2.63024e+16
2.55602e+16
2.43565e+16
2.295e+16
2.15195e+16
2.02505e+16
1.89886e+16
1.74828e+16
1.60296e+16
1.47364e+16
1.34826e+16
1.17262e+16
1.05086e+16
8.76331e+15
7.23389e+15
5.71931e+15
4.16085e+15
2.40934e+15
2.66619e+15
4.3601e+15
6.10988e+15
7.55997e+15
9.17113e+15
1.08158e+16
1.23947e+16
1.3842e+16
1.533e+16
1.67917e+16
1.81046e+16
1.96005e+16
2.09949e+16
2.24435e+16
2.38404e+16
2.5258e+16
2.65321e+16
2.73135e+16
2.86439e+16
2.98315e+16
3.10829e+16
3.19929e+16
3.30315e+16
3.40477e+16
3.47168e+16
3.55352e+16
3.64633e+16
3.72165e+16
3.76144e+16
3.85064e+16
3.89796e+16
3.94799e+16
4.00401e+16
4.05431e+16
4.0971e+16
4.15623e+16
4.15277e+16
4.15994e+16
4.17182e+16
4.15366e+16
4.16062e+16
4.17806e+16
4.19047e+16
4.15868e+16
4.14901e+16
4.13392e+16
4.04428e+16
3.98724e+16
3.94883e+16
3.88621e+16
3.84815e+16
3.79694e+16
3.72105e+16
3.65216e+16
3.5422e+16
3.50616e+16
3.37594e+16
3.28299e+16
3.18029e+16
3.07537e+16
2.95363e+16
2.88691e+16
2.73294e+16
2.62353e+16
2.49495e+16
2.38414e+16
2.23577e+16
2.09301e+16
1.95494e+16
1.81938e+16
1.66999e+16
1.52319e+16
1.35446e+16
1.20654e+16
1.06789e+16
8.97656e+15
7.53463e+15
5.9203e+15
4.29989e+15
2.49793e+15
2.73484e+15
4.50229e+15
6.20834e+15
7.90565e+15
9.51526e+15
1.1159e+16
1.27359e+16
1.4357e+16
1.56853e+16
1.72854e+16
1.90144e+16
2.04004e+16
2.18101e+16
2.31661e+16
2.45634e+16
2.58543e+16
2.71588e+16
2.80875e+16
2.97893e+16
3.07514e+16
3.14546e+16
3.28638e+16
3.38753e+16
3.48303e+16
3.58745e+16
3.67283e+16
3.77753e+16
3.84692e+16
3.90935e+16
3.96345e+16
4.05275e+16
4.1337e+16
4.16045e+16
4.17875e+16
4.25128e+16
4.24674e+16
4.3016e+16
4.32351e+16
4.329e+16
4.34956e+16
4.32682e+16
4.33329e+16
4.29313e+16
4.32149e+16
4.28474e+16
4.22806e+16
4.19719e+16
4.1478e+16
4.12301e+16
4.06115e+16
3.97981e+16
3.91996e+16
3.84298e+16
3.75044e+16
3.68898e+16
3.59786e+16
3.50334e+16
3.36989e+16
3.28152e+16
3.15929e+16
3.01932e+16
2.94388e+16
2.82324e+16
2.70817e+16
2.58799e+16
2.45856e+16
2.33798e+16
2.18358e+16
2.05065e+16
1.88027e+16
1.72533e+16
1.5784e+16
1.3936e+16
1.26378e+16
1.0965e+16
9.31466e+15
7.69675e+15
6.10081e+15
4.45111e+15
2.64408e+15
2.82871e+15
4.57074e+15
6.41204e+15
8.21542e+15
9.85254e+15
1.13734e+16
1.30336e+16
1.46595e+16
1.6419e+16
1.76942e+16
1.92532e+16
2.08836e+16
2.231e+16
2.39045e+16
2.53975e+16
2.65279e+16
2.79737e+16
2.9102e+16
3.02813e+16
3.16952e+16
3.29845e+16
3.38825e+16
3.51139e+16
3.60137e+16
3.73886e+16
3.78512e+16
3.88828e+16
3.96314e+16
4.01114e+16
4.08777e+16
4.15339e+16
4.21017e+16
4.28936e+16
4.34285e+16
4.32421e+16
4.39758e+16
4.39895e+16
4.46689e+16
4.46361e+16
4.46733e+16
4.47437e+16
4.47219e+16
4.44571e+16
4.42759e+16
4.43624e+16
4.4218e+16
4.29878e+16
4.30643e+16
4.22645e+16
4.19022e+16
4.11175e+16
4.06942e+16
3.95652e+16
3.86329e+16
3.78556e+16
3.70622e+16
3.60402e+16
3.50481e+16
3.39699e+16
3.27599e+16
3.16102e+16
3.0495e+16
2.92641e+16
2.76975e+16
2.64915e+16
2.51785e+16
2.37684e+16
2.23772e+16
2.07695e+16
1.91763e+16
1.74153e+16
1.63277e+16
1.45396e+16
1.29699e+16
1.13189e+16
9.71299e+15
8.05981e+15
6.31226e+15
4.50433e+15
2.74092e+15
2.88212e+15
4.71992e+15
6.55504e+15
8.42271e+15
1.00957e+16
1.1674e+16
1.34618e+16
1.51313e+16
1.68293e+16
1.84268e+16
2.01883e+16
2.14792e+16
2.3239e+16
2.45022e+16
2.57551e+16
2.74234e+16
2.86003e+16
3.01049e+16
3.12625e+16
3.27955e+16
3.39032e+16
3.47418e+16
3.59453e+16
3.72561e+16
3.80096e+16
3.92466e+16
4.02821e+16
4.07835e+16
4.16776e+16
4.21189e+16
4.29934e+16
4.39252e+16
4.42266e+16
4.45816e+16
4.46052e+16
4.52864e+16
4.56097e+16
4.55822e+16
4.56262e+16
4.62335e+16
4.63556e+16
4.59135e+16
4.56985e+16
4.60938e+16
4.56282e+16
4.53073e+16
4.40038e+16
4.41336e+16
4.38405e+16
4.31339e+16
4.23847e+16
4.18303e+16
4.08814e+16
3.99299e+16
3.88214e+16
3.8245e+16
3.71167e+16
3.59533e+16
3.49178e+16
3.39162e+16
3.26413e+16
3.11581e+16
2.99955e+16
2.86747e+16
2.71175e+16
2.61599e+16
2.48208e+16
2.28664e+16
2.14208e+16
1.98795e+16
1.82353e+16
1.66646e+16
1.50331e+16
1.32395e+16
1.17448e+16
9.92357e+15
8.28313e+15
6.40905e+15
4.63559e+15
2.75629e+15
2.95219e+15
4.8768e+15
6.79822e+15
8.62876e+15
1.03438e+16
1.2073e+16
1.39423e+16
1.57212e+16
1.72028e+16
1.91696e+16
2.07182e+16
2.21004e+16
2.37473e+16
2.52098e+16
2.65848e+16
2.81509e+16
2.94692e+16
3.06618e+16
3.22569e+16
3.35117e+16
3.47055e+16
3.58435e+16
3.70797e+16
3.85612e+16
3.9233e+16
3.99676e+16
4.12877e+16
4.18862e+16
4.25275e+16
4.33184e+16
4.39606e+16
4.44665e+16
4.53179e+16
4.56613e+16
4.63823e+16
4.6693e+16
4.71877e+16
4.71986e+16
4.72362e+16
4.77009e+16
4.76512e+16
4.72704e+16
4.73197e+16
4.71057e+16
4.6536e+16
4.61346e+16
4.58896e+16
4.53005e+16
4.50683e+16
4.42339e+16
4.38146e+16
4.27541e+16
4.18851e+16
4.12149e+16
4.03243e+16
3.89343e+16
3.82257e+16
3.71607e+16
3.6039e+16
3.49648e+16
3.33793e+16
3.21308e+16
3.10335e+16
2.95645e+16
2.83194e+16
2.67484e+16
2.49169e+16
2.36486e+16
2.19204e+16
2.02665e+16
1.86834e+16
1.72546e+16
1.54705e+16
1.3868e+16
1.22266e+16
1.01607e+16
8.55371e+15
6.77693e+15
4.88076e+15
2.85702e+15
3.00537e+15
5.03488e+15
7.12086e+15
8.83139e+15
1.0712e+16
1.26354e+16
1.43306e+16
1.63464e+16
1.78871e+16
1.94822e+16
2.12607e+16
2.28214e+16
2.46451e+16
2.57483e+16
2.74069e+16
2.90159e+16
3.02947e+16
3.1738e+16
3.31153e+16
3.43884e+16
3.57039e+16
3.68644e+16
3.84512e+16
3.92866e+16
4.02283e+16
4.13269e+16
4.26248e+16
4.30535e+16
4.36056e+16
4.49257e+16
4.53999e+16
4.60328e+16
4.65726e+16
4.71094e+16
4.76748e+16
4.83755e+16
4.85936e+16
4.85358e+16
4.85207e+16
4.83522e+16
4.87074e+16
4.8827e+16
4.8552e+16
4.80881e+16
4.77671e+16
4.74255e+16
4.70631e+16
4.68306e+16
4.5999e+16
4.53665e+16
4.44606e+16
4.39122e+16
4.3024e+16
4.21489e+16
4.1436e+16
4.04123e+16
3.91383e+16
3.79587e+16
3.68653e+16
3.55533e+16
3.44224e+16
3.31407e+16
3.18918e+16
3.06417e+16
2.89539e+16
2.75105e+16
2.57723e+16
2.42716e+16
2.23141e+16
2.0708e+16
1.90169e+16
1.76291e+16
1.60431e+16
1.42192e+16
1.24034e+16
1.05334e+16
8.84709e+15
6.91145e+15
4.95253e+15
2.94878e+15
3.04946e+15
5.24479e+15
7.20541e+15
9.18134e+15
1.1068e+16
1.27736e+16
1.46131e+16
1.6604e+16
1.8261e+16
1.99438e+16
2.1671e+16
2.36835e+16
2.51042e+16
2.66562e+16
2.83359e+16
2.97198e+16
3.11143e+16
3.25204e+16
3.3936e+16
3.53996e+16
3.63531e+16
3.78983e+16
3.88602e+16
4.03503e+16
4.12705e+16
4.20944e+16
4.33499e+16
4.41316e+16
4.51837e+16
4.60154e+16
4.69027e+16
4.72263e+16
4.76427e+16
4.87748e+16
4.87984e+16
4.93219e+16
4.94653e+16
4.96807e+16
4.98043e+16
4.94104e+16
4.9889e+16
4.95012e+16
4.95193e+16
4.94037e+16
4.91566e+16
4.88297e+16
4.80348e+16
4.7487e+16
4.72831e+16
4.65615e+16
4.60607e+16
4.50463e+16
4.42604e+16
4.32598e+16
4.24395e+16
4.12739e+16
3.98873e+16
3.87417e+16
3.78295e+16
3.65375e+16
3.53306e+16
3.36463e+16
3.24968e+16
3.14607e+16
2.95678e+16
2.80386e+16