/*--------------------------------*- C++ -*----------------------------------*\
  =========                 |
  \\      /  F ield         | OpenFOAM: The Open Source CFD Toolbox
   \\    /   O peration     | Website:  https://openfoam.org
    \\  /    A nd           | Version:  6
     \\/     M anipulation  |
\*---------------------------------------------------------------------------*/
FoamFile
{
    version     2.0;
    format      ascii;
    class       volScalarField;
    location    "600";
    object      dnp5_s;
}
// * * * * * * * * * * * * * * * * * * * * * * * * * * * * * * * * * * * * * //

dimensions      [0 -3 -1 0 0 0 0];

internalField   nonuniform List<scalar> 
6400
(
3.27008e+14
5.30943e+14
7.18297e+14
9.09205e+14
1.1544e+15
1.34495e+15
1.48413e+15
1.70523e+15
1.87253e+15
2.08169e+15
2.19687e+15
2.48004e+15
2.56339e+15
2.69998e+15
2.93696e+15
3.06345e+15
3.32808e+15
3.34247e+15
3.597e+15
3.6466e+15
3.91567e+15
3.97846e+15
3.98088e+15
4.09735e+15
4.29901e+15
4.28985e+15
4.46817e+15
4.50153e+15
4.64504e+15
4.74538e+15
5.08697e+15
4.85567e+15
4.96508e+15
5.0408e+15
5.14548e+15
4.98494e+15
5.23242e+15
5.09541e+15
5.12667e+15
5.02799e+15
5.31169e+15
5.08033e+15
5.25306e+15
5.02732e+15
5.00608e+15
4.97052e+15
5.05215e+15
5.00826e+15
4.79121e+15
4.93773e+15
4.71064e+15
4.88518e+15
4.58268e+15
4.51032e+15
4.3761e+15
4.29968e+15
4.16012e+15
4.10859e+15
3.8935e+15
3.78067e+15
3.62177e+15
3.50142e+15
3.35437e+15
3.20005e+15
3.09357e+15
2.86043e+15
2.81614e+15
2.50242e+15
2.49646e+15
2.25087e+15
2.08383e+15
1.89712e+15
1.65903e+15
1.51993e+15
1.3058e+15
1.22242e+15
9.43778e+14
7.4439e+14
5.76574e+14
3.29114e+14
4.96289e+14
7.77367e+14
1.14564e+15
1.49996e+15
1.76223e+15
2.09379e+15
2.30496e+15
2.63493e+15
3.03612e+15
3.14145e+15
3.42807e+15
3.72505e+15
4.12163e+15
4.17791e+15
4.52266e+15
4.90001e+15
5.0757e+15
5.34732e+15
5.44974e+15
5.72132e+15
5.84849e+15
6.19478e+15
6.19965e+15
6.35982e+15
6.68869e+15
6.76325e+15
6.96171e+15
6.99441e+15
7.40842e+15
7.312e+15
7.50551e+15
7.40142e+15
7.88991e+15
7.59302e+15
7.75931e+15
7.77627e+15
7.90235e+15
7.88967e+15
8.0631e+15
7.98756e+15
8.09824e+15
8.12791e+15
8.04978e+15
7.88799e+15
7.74022e+15
7.69121e+15
7.83185e+15
7.55577e+15
7.59384e+15
7.50717e+15
7.43068e+15
7.34034e+15
7.23868e+15
6.98714e+15
6.76628e+15
6.57353e+15
6.41087e+15
6.21644e+15
6.14764e+15
5.82884e+15
5.58927e+15
5.37484e+15
5.13593e+15
4.82747e+15
4.77557e+15
4.55728e+15
4.23667e+15
3.95846e+15
3.67039e+15
3.55982e+15
3.21452e+15
2.88517e+15
2.5334e+15
2.29269e+15
2.0649e+15
1.72519e+15
1.4413e+15
1.11083e+15
9.27114e+14
4.81532e+14
6.75599e+14
1.09531e+15
1.47653e+15
2.00166e+15
2.26078e+15
2.67359e+15
3.05015e+15
3.46932e+15
3.92867e+15
4.13441e+15
4.47035e+15
4.84335e+15
5.34875e+15
5.53446e+15
6.12238e+15
6.47302e+15
6.67588e+15
6.95995e+15
7.29833e+15
7.67529e+15
7.75025e+15
8.26124e+15
8.19293e+15
8.4594e+15
8.84705e+15
9.01503e+15
9.28151e+15
9.74505e+15
9.71569e+15
9.69245e+15
9.87637e+15
1.01849e+16
1.02222e+16
1.02939e+16
1.03925e+16
1.05342e+16
1.06155e+16
1.06697e+16
1.03561e+16
1.04955e+16
1.0432e+16
1.05993e+16
1.05916e+16
1.06099e+16
1.03638e+16
1.02051e+16
1.02359e+16
1.00752e+16
9.91207e+15
9.92866e+15
9.88459e+15
9.65467e+15
9.55732e+15
9.27106e+15
8.98502e+15
8.78636e+15
8.38314e+15
8.39597e+15
8.18585e+15
7.82637e+15
7.3462e+15
7.26459e+15
6.94248e+15
6.41922e+15
6.23523e+15
6.04146e+15
5.6095e+15
5.2737e+15
4.8364e+15
4.69406e+15
4.33938e+15
3.98691e+15
3.39106e+15
3.25377e+15
2.72054e+15
2.30722e+15
2.00261e+15
1.50161e+15
1.15095e+15
6.81568e+14
8.1986e+14
1.32631e+15
1.93586e+15
2.46786e+15
2.94271e+15
3.39241e+15
3.87155e+15
4.30359e+15
4.96605e+15
5.33882e+15
5.66202e+15
6.1825e+15
6.47096e+15
7.16405e+15
7.49934e+15
7.93947e+15
8.32478e+15
8.6501e+15
9.21699e+15
9.40977e+15
9.98185e+15
1.0226e+16
1.03267e+16
1.07646e+16
1.10214e+16
1.14551e+16
1.12725e+16
1.16648e+16
1.19927e+16
1.20237e+16
1.25186e+16
1.2579e+16
1.2548e+16
1.29056e+16
1.28833e+16
1.30256e+16
1.31768e+16
1.32189e+16
1.30538e+16
1.30461e+16
1.31586e+16
1.32703e+16
1.31756e+16
1.2855e+16
1.28893e+16
1.26481e+16
1.25198e+16
1.26205e+16
1.24669e+16
1.23044e+16
1.21711e+16
1.20167e+16
1.17942e+16
1.14731e+16
1.1222e+16
1.09531e+16
1.07129e+16
1.03438e+16
1.00009e+16
9.78141e+15
9.294e+15
8.95142e+15
8.50104e+15
8.1404e+15
7.90785e+15
7.4e+15
7.0056e+15
6.73808e+15
6.16071e+15
5.7759e+15
5.37637e+15
4.90894e+15
4.36983e+15
3.91864e+15
3.46199e+15
2.86986e+15
2.4516e+15
1.90819e+15
1.34132e+15
8.34971e+14
9.63934e+14
1.76282e+15
2.22749e+15
2.88529e+15
3.43648e+15
4.11203e+15
4.64962e+15
5.22586e+15
5.77993e+15
6.37804e+15
6.96195e+15
7.29773e+15
7.76399e+15
8.52322e+15
9.15592e+15
9.59007e+15
1.0059e+16
1.05179e+16
1.07659e+16
1.12806e+16
1.15887e+16
1.20494e+16
1.24333e+16
1.2816e+16
1.32848e+16
1.36173e+16
1.38142e+16
1.40633e+16
1.42605e+16
1.46579e+16
1.46755e+16
1.47509e+16
1.51098e+16
1.49521e+16
1.52796e+16
1.53444e+16
1.54775e+16
1.58976e+16
1.58267e+16
1.5972e+16
1.57811e+16
1.58754e+16
1.58408e+16
1.55546e+16
1.50949e+16
1.53004e+16
1.52877e+16
1.49498e+16
1.51212e+16
1.47024e+16
1.46334e+16
1.40522e+16
1.40076e+16
1.41692e+16
1.36737e+16
1.32686e+16
1.29531e+16
1.24425e+16
1.1997e+16
1.17364e+16
1.12939e+16
1.05595e+16
1.01619e+16
9.71893e+15
9.34566e+15
8.90827e+15
8.48543e+15
8.18499e+15
7.36075e+15
6.94844e+15
6.31842e+15
5.71315e+15
5.31593e+15
4.55427e+15
3.92955e+15
3.43494e+15
2.87733e+15
2.31117e+15
1.57466e+15
9.61141e+14
1.16249e+15
1.97808e+15
2.69987e+15
3.45529e+15
3.96961e+15
4.69455e+15
5.36885e+15
6.12532e+15
6.73839e+15
7.37795e+15
7.97502e+15
8.50986e+15
9.1559e+15
9.97155e+15
1.06066e+16
1.08716e+16
1.16543e+16
1.20152e+16
1.23918e+16
1.3208e+16
1.37478e+16
1.40836e+16
1.43615e+16
1.4907e+16
1.52724e+16
1.57665e+16
1.59867e+16
1.63268e+16
1.66381e+16
1.69789e+16
1.6873e+16
1.72025e+16
1.76007e+16
1.77625e+16
1.7933e+16
1.80626e+16
1.82227e+16
1.85051e+16
1.87648e+16
1.82332e+16
1.83953e+16
1.84127e+16
1.81395e+16
1.81743e+16
1.80337e+16
1.80473e+16
1.77699e+16
1.75705e+16
1.7457e+16
1.71722e+16
1.69741e+16
1.66226e+16
1.61786e+16
1.60751e+16
1.57304e+16
1.53988e+16
1.50588e+16
1.44583e+16
1.39719e+16
1.37137e+16
1.32709e+16
1.2527e+16
1.21055e+16
1.13316e+16
1.09023e+16
1.04536e+16
1.00094e+16
9.24558e+15
8.59935e+15
8.08226e+15
7.39106e+15
6.68517e+15
6.03632e+15
5.31149e+15
4.6047e+15
4.05994e+15
3.37584e+15
2.6954e+15
1.83334e+15
1.15051e+15
1.293e+15
2.16053e+15
3.0666e+15
3.8956e+15
4.5025e+15
5.29056e+15
6.06285e+15
6.89885e+15
7.58638e+15
8.4606e+15
9.05782e+15
9.74609e+15
1.05078e+16
1.12014e+16
1.17452e+16
1.25445e+16
1.29321e+16
1.37473e+16
1.45312e+16
1.5076e+16
1.54475e+16
1.6093e+16
1.63294e+16
1.66611e+16
1.72233e+16
1.79026e+16
1.85912e+16
1.87927e+16
1.8578e+16
1.92414e+16
1.95418e+16
1.97597e+16
1.9925e+16
2.00434e+16
2.03987e+16
2.05285e+16
2.1017e+16
2.09673e+16
2.06792e+16
2.08463e+16
2.08965e+16
2.09881e+16
2.08612e+16
2.08754e+16
2.05152e+16
2.0403e+16
2.04166e+16
2.02555e+16
1.98666e+16
1.95965e+16
1.91238e+16
1.88596e+16
1.90543e+16
1.8115e+16
1.76688e+16
1.77912e+16
1.73105e+16
1.65185e+16
1.57589e+16
1.56853e+16
1.51893e+16
1.45194e+16
1.36655e+16
1.30054e+16
1.24567e+16
1.1764e+16
1.16097e+16
1.07727e+16
9.82697e+15
9.33436e+15
8.36159e+15
7.65509e+15
6.89758e+15
6.12644e+15
5.19798e+15
4.58058e+15
3.69805e+15
3.1217e+15
2.24147e+15
1.38533e+15
1.45654e+15
2.49941e+15
3.49429e+15
4.36439e+15
5.11781e+15
6.07899e+15
6.94513e+15
7.60973e+15
8.66299e+15
9.48634e+15
1.01632e+16
1.09797e+16
1.19686e+16
1.24266e+16
1.32033e+16
1.41255e+16
1.48421e+16
1.55465e+16
1.60513e+16
1.68263e+16
1.72352e+16
1.7792e+16
1.85061e+16
1.89135e+16
1.94224e+16
1.98676e+16
2.06711e+16
2.05374e+16
2.14785e+16
2.19103e+16
2.17823e+16
2.20139e+16
2.22253e+16
2.24842e+16
2.29041e+16
2.28121e+16
2.32192e+16
2.34264e+16
2.35402e+16
2.35217e+16
2.35769e+16
2.33715e+16
2.32473e+16
2.36929e+16
2.30724e+16
2.25961e+16
2.2864e+16
2.2517e+16
2.23518e+16
2.16982e+16
2.1612e+16
2.14941e+16
2.06811e+16
2.03062e+16
1.98611e+16
1.95809e+16
1.91318e+16
1.8895e+16
1.81753e+16
1.72758e+16
1.6722e+16
1.59701e+16
1.52859e+16
1.44192e+16
1.40612e+16
1.33349e+16
1.26638e+16
1.2052e+16
1.13332e+16
1.03524e+16
9.46482e+15
8.55715e+15
7.83979e+15
6.79311e+15
6.02235e+15
5.08083e+15
4.17993e+15
3.50444e+15
2.54743e+15
1.49636e+15
1.57885e+15
2.70422e+15
3.92829e+15
4.85199e+15
5.8755e+15
6.57594e+15
7.68963e+15
8.67155e+15
9.45742e+15
1.04247e+16
1.14811e+16
1.19808e+16
1.31319e+16
1.4193e+16
1.50666e+16
1.52397e+16
1.62328e+16
1.75106e+16
1.79252e+16
1.85527e+16
1.92989e+16
1.97911e+16
2.0147e+16
2.1148e+16
2.1441e+16
2.20038e+16
2.27591e+16
2.29395e+16
2.33231e+16
2.37978e+16
2.43288e+16
2.45238e+16
2.51731e+16
2.52237e+16
2.52246e+16
2.54896e+16
2.57881e+16
2.60766e+16
2.62622e+16
2.61471e+16
2.60258e+16
2.60479e+16
2.56796e+16
2.55917e+16
2.5531e+16
2.50675e+16
2.49566e+16
2.46055e+16
2.46573e+16
2.43481e+16
2.38228e+16
2.33376e+16
2.28447e+16
2.26164e+16
2.20886e+16
2.16808e+16
2.13262e+16
2.0744e+16
1.98132e+16
1.93362e+16
1.83026e+16
1.8027e+16
1.72789e+16
1.63857e+16
1.52344e+16
1.4568e+16
1.40782e+16
1.30992e+16
1.23749e+16
1.13465e+16
1.06372e+16
9.77705e+15
8.65426e+15
7.57359e+15
6.66336e+15
5.73181e+15
4.70163e+15
3.82981e+15
2.67186e+15
1.67837e+15
1.77552e+15
2.8654e+15
4.1754e+15
5.27759e+15
6.40798e+15
7.32675e+15
8.42322e+15
9.33317e+15
1.04436e+16
1.15125e+16
1.26674e+16
1.34609e+16
1.41431e+16
1.54379e+16
1.63453e+16
1.72115e+16
1.80765e+16
1.89064e+16
1.97022e+16
2.04562e+16
2.1365e+16
2.17232e+16
2.24291e+16
2.32568e+16
2.38899e+16
2.46585e+16
2.50289e+16
2.55376e+16
2.60409e+16
2.63787e+16
2.68538e+16
2.71746e+16
2.75523e+16
2.76275e+16
2.81166e+16
2.79518e+16
2.83696e+16
2.83381e+16
2.82788e+16
2.85245e+16
2.88006e+16
2.85112e+16
2.84745e+16
2.81689e+16
2.81051e+16
2.77072e+16
2.75023e+16
2.71744e+16
2.70196e+16
2.66445e+16
2.63403e+16
2.58907e+16
2.54402e+16
2.49949e+16
2.41968e+16
2.41425e+16
2.32578e+16
2.22697e+16
2.18981e+16
2.10944e+16
2.0206e+16
1.92095e+16
1.83576e+16
1.7627e+16
1.69632e+16
1.6341e+16
1.53689e+16
1.45219e+16
1.31903e+16
1.25268e+16
1.15794e+16
1.05146e+16
9.14848e+15
8.25817e+15
7.20192e+15
6.28343e+15
5.16203e+15
4.07186e+15
3.02012e+15
1.7482e+15
2.00839e+15
3.14877e+15
4.52699e+15
5.68141e+15
6.68977e+15
7.97614e+15
9.16034e+15
1.01478e+16
1.14841e+16
1.25597e+16
1.4045e+16
1.46636e+16
1.52888e+16
1.6546e+16
1.76621e+16
1.85129e+16
1.95319e+16
2.03961e+16
2.13588e+16
2.24907e+16
2.31901e+16
2.40241e+16
2.4465e+16
2.46518e+16
2.57073e+16
2.65552e+16
2.73454e+16
2.75559e+16
2.84391e+16
2.85874e+16
2.89419e+16
2.91569e+16
2.95392e+16
3.00547e+16
3.05207e+16
3.06181e+16
3.06723e+16
3.11629e+16
3.09018e+16
3.16127e+16
3.13615e+16
3.10452e+16
3.12362e+16
3.07779e+16
3.05703e+16
2.99037e+16
3.00681e+16
2.98207e+16
2.93691e+16
2.91166e+16
2.88012e+16
2.80926e+16
2.75201e+16
2.69422e+16
2.65482e+16
2.60698e+16
2.47309e+16
2.44818e+16
2.36839e+16
2.29345e+16
2.2231e+16
2.09208e+16
2.03086e+16
1.93011e+16
1.84762e+16
1.79305e+16
1.66975e+16
1.55024e+16
1.47197e+16
1.34906e+16
1.2565e+16
1.13722e+16
1.01476e+16
9.08616e+15
7.99071e+15
6.8568e+15
5.49425e+15
4.48263e+15
3.21788e+15
1.88604e+15
2.29964e+15
3.48109e+15
4.78367e+15
6.16444e+15
7.40372e+15
8.56231e+15
9.89419e+15
1.0991e+16
1.20845e+16
1.34299e+16
1.47235e+16
1.58527e+16
1.65166e+16
1.77667e+16
1.89286e+16
2.01993e+16
2.13968e+16
2.22211e+16
2.31641e+16
2.40545e+16
2.48012e+16
2.60019e+16
2.61504e+16
2.71387e+16
2.8077e+16
2.86871e+16
2.94679e+16
2.98932e+16
3.00861e+16
3.1001e+16
3.15656e+16
3.20109e+16
3.26467e+16
3.2691e+16
3.2731e+16
3.29832e+16
3.37172e+16
3.36728e+16
3.32112e+16
3.35548e+16
3.35826e+16
3.38794e+16
3.34973e+16
3.31777e+16
3.26996e+16
3.27175e+16
3.23935e+16
3.187e+16
3.17896e+16
3.13162e+16
3.10323e+16
3.04398e+16
2.97332e+16
2.9477e+16
2.88621e+16
2.79417e+16
2.73941e+16
2.63602e+16
2.54587e+16
2.4935e+16
2.42234e+16
2.30545e+16
2.21503e+16
2.11045e+16
2.01157e+16
1.90194e+16
1.80928e+16
1.67829e+16
1.56228e+16
1.46271e+16
1.34367e+16
1.24704e+16
1.09992e+16
9.78779e+15
8.55583e+15
7.31035e+15
6.16823e+15
4.82435e+15
3.44359e+15
2.07126e+15
2.38335e+15
3.7853e+15
5.23268e+15
6.52926e+15
7.91784e+15
9.29413e+15
1.05754e+16
1.22147e+16
1.30479e+16
1.44416e+16
1.57908e+16
1.70247e+16
1.82154e+16
1.9368e+16
2.02745e+16
2.17187e+16
2.26018e+16
2.35576e+16
2.45818e+16
2.55566e+16
2.65718e+16
2.80898e+16
2.85018e+16
2.93565e+16
3.05822e+16
3.10653e+16
3.176e+16
3.2218e+16
3.28328e+16
3.345e+16
3.3991e+16
3.41157e+16
3.45376e+16
3.55875e+16
3.53029e+16
3.58686e+16
3.58825e+16
3.57981e+16
3.60309e+16
3.59601e+16
3.63645e+16
3.58931e+16
3.61836e+16
3.58942e+16
3.59161e+16
3.54556e+16
3.5062e+16
3.48585e+16
3.44114e+16
3.40174e+16
3.35754e+16
3.28922e+16
3.24395e+16
3.15104e+16
3.09283e+16
3.02522e+16
2.94606e+16
2.85011e+16
2.75497e+16
2.66582e+16
2.57975e+16
2.52931e+16
2.38036e+16
2.30064e+16
2.1688e+16
2.0584e+16
1.93484e+16
1.78378e+16
1.7078e+16
1.56662e+16
1.43836e+16
1.32408e+16
1.18525e+16
1.03013e+16
9.22968e+15
7.69835e+15
6.53884e+15
5.16407e+15
3.77601e+15
2.15939e+15
2.52184e+15
4.16999e+15
5.61093e+15
6.97134e+15
8.59477e+15
1.00394e+16
1.12714e+16
1.27141e+16
1.37616e+16
1.5547e+16
1.69896e+16
1.8205e+16
1.96771e+16
2.09074e+16
2.17667e+16
2.29023e+16
2.46593e+16
2.53306e+16
2.68829e+16
2.76237e+16
2.90586e+16
2.94669e+16
3.04568e+16
3.12858e+16
3.2477e+16
3.37134e+16
3.39554e+16
3.47911e+16
3.48387e+16
3.58567e+16
3.60522e+16
3.67658e+16
3.74413e+16
3.78783e+16
3.76081e+16
3.83601e+16
3.85889e+16
3.85855e+16
3.89158e+16
3.87687e+16
3.90625e+16
3.88939e+16
3.86692e+16
3.83562e+16
3.78808e+16
3.74806e+16
3.73697e+16
3.70578e+16
3.68872e+16
3.63226e+16
3.58122e+16
3.54809e+16
3.4368e+16
3.38445e+16
3.31319e+16
3.23312e+16
3.14203e+16
3.0854e+16
2.95408e+16
2.8538e+16
2.778e+16
2.67834e+16
2.55791e+16
2.44922e+16
2.30526e+16
2.17599e+16
2.06342e+16
1.95234e+16
1.83417e+16
1.69651e+16
1.52224e+16
1.41607e+16
1.277e+16
1.11675e+16
9.6044e+15
8.45339e+15
6.77207e+15
5.42988e+15
3.92846e+15
2.35803e+15
2.4835e+15
4.32654e+15
5.88021e+15
7.62464e+15
9.12744e+15
1.07034e+16
1.22619e+16
1.3615e+16
1.48441e+16
1.65494e+16
1.76483e+16
1.93576e+16
2.09812e+16
2.22425e+16
2.33515e+16
2.45899e+16
2.60096e+16
2.69818e+16
2.80651e+16
2.94073e+16
3.07691e+16
3.14042e+16
3.23531e+16
3.3308e+16
3.46925e+16
3.50957e+16
3.61133e+16
3.72101e+16
3.75485e+16
3.81614e+16
3.91351e+16
3.92889e+16
3.99358e+16
4.03553e+16
4.08054e+16
4.06192e+16
4.11875e+16
4.10005e+16
4.16783e+16
4.14355e+16
4.13339e+16
4.12689e+16
4.14482e+16
4.06331e+16
4.06794e+16
4.01619e+16
3.97837e+16
3.94069e+16
3.92018e+16
3.87884e+16
3.83064e+16
3.75263e+16
3.68182e+16
3.62164e+16
3.54941e+16
3.42893e+16
3.30998e+16
3.24322e+16
3.13825e+16
3.04477e+16
2.94584e+16
2.82325e+16
2.70456e+16
2.57359e+16
2.44459e+16
2.31729e+16
2.20316e+16
2.07989e+16
1.95657e+16
1.76896e+16
1.66397e+16
1.51086e+16
1.33804e+16
1.20643e+16
1.05473e+16
9.1218e+15
7.34831e+15
5.8868e+15
4.25732e+15
2.53559e+15
2.64732e+15
4.59315e+15
6.22769e+15
7.89053e+15
9.46427e+15
1.13289e+16
1.30124e+16
1.46092e+16
1.5792e+16
1.72871e+16
1.89616e+16
2.05371e+16
2.19043e+16
2.34274e+16
2.47746e+16
2.64133e+16
2.74963e+16
2.85739e+16
2.99643e+16
3.09693e+16
3.25569e+16
3.33284e+16
3.45496e+16
3.58413e+16
3.68712e+16
3.75092e+16
3.89444e+16
3.84446e+16
3.96359e+16
4.03951e+16
4.07886e+16
4.17999e+16
4.19594e+16
4.30237e+16
4.28638e+16
4.33639e+16
4.38747e+16
4.33061e+16
4.39305e+16
4.3729e+16
4.34843e+16
4.39381e+16
4.3746e+16
4.34381e+16
4.35e+16
4.30744e+16
4.24964e+16
4.16705e+16
4.17004e+16
4.12588e+16
4.02661e+16
4.01091e+16
3.90716e+16
3.79589e+16
3.71795e+16
3.64098e+16
3.49181e+16
3.46953e+16
3.33861e+16
3.21147e+16
3.11642e+16
3.02512e+16
2.92205e+16
2.71556e+16
2.62746e+16
2.46692e+16
2.33244e+16
2.18983e+16
2.03979e+16
1.90975e+16
1.7332e+16
1.58702e+16
1.45477e+16
1.27875e+16
1.11048e+16
9.80164e+15
7.79959e+15
6.25613e+15
4.47443e+15
2.61229e+15
2.65744e+15
4.82657e+15
6.66623e+15
8.44591e+15
9.95601e+15
1.1657e+16
1.36954e+16
1.53997e+16
1.69456e+16
1.85312e+16
2.02708e+16
2.19726e+16
2.31115e+16
2.47734e+16
2.63896e+16
2.78126e+16
2.91856e+16
3.02722e+16
3.2001e+16
3.29465e+16
3.41495e+16
3.5338e+16
3.6522e+16
3.77439e+16
3.87942e+16
3.95198e+16
4.08506e+16
4.11388e+16
4.21056e+16
4.30351e+16
4.33633e+16
4.41462e+16
4.42938e+16
4.48446e+16
4.53643e+16
4.57376e+16
4.60869e+16
4.57951e+16
4.63669e+16
4.64466e+16
4.63643e+16
4.60302e+16
4.6152e+16
4.60491e+16
4.5477e+16
4.53961e+16
4.50255e+16
4.3964e+16
4.38063e+16
4.33246e+16
4.2879e+16
4.22129e+16
4.1455e+16
4.0424e+16
3.9087e+16
3.82955e+16
3.69178e+16
3.62695e+16
3.52518e+16
3.42255e+16
3.29828e+16
3.15756e+16
3.06532e+16
2.86629e+16
2.71577e+16
2.61111e+16
2.46008e+16
2.32148e+16
2.16625e+16
1.97881e+16
1.84711e+16
1.69502e+16
1.52151e+16
1.36742e+16
1.18566e+16
1.00889e+16
8.38884e+15
6.48678e+15
4.75139e+15
2.80037e+15
2.98849e+15
5.17193e+15
6.92946e+15
8.94275e+15
1.07346e+16
1.25395e+16
1.43181e+16
1.63277e+16
1.78031e+16
1.94764e+16
2.11362e+16
2.28307e+16
2.43678e+16
2.63251e+16
2.79445e+16
2.92113e+16
3.09663e+16
3.178e+16
3.37411e+16
3.51263e+16
3.59338e+16
3.71769e+16
3.8124e+16
3.96682e+16
4.07059e+16
4.13262e+16
4.28454e+16
4.34575e+16
4.38266e+16
4.53557e+16
4.55777e+16
4.59478e+16
4.71407e+16
4.71298e+16
4.73815e+16
4.79945e+16
4.83664e+16
4.86556e+16
4.85131e+16
4.86576e+16
4.85027e+16
4.89181e+16
4.87838e+16
4.8009e+16
4.80634e+16
4.78672e+16
4.73604e+16
4.67194e+16
4.6661e+16
4.56597e+16
4.48294e+16
4.41296e+16
4.32056e+16
4.21721e+16
4.13397e+16
4.04422e+16
3.9472e+16
3.81063e+16
3.72471e+16
3.56014e+16
3.43304e+16
3.33719e+16
3.15557e+16
3.03584e+16
2.88334e+16
2.76634e+16
2.58338e+16
2.43262e+16
2.27167e+16
2.08612e+16
1.97855e+16
1.78776e+16
1.5858e+16
1.42609e+16
1.25744e+16
1.07372e+16
8.81416e+15
6.80308e+15
4.94205e+15
2.95385e+15
3.20533e+15
5.24399e+15
7.32311e+15
9.32836e+15
1.14062e+16
1.33504e+16
1.50771e+16
1.68536e+16
1.84682e+16
2.0402e+16
2.25392e+16
2.37585e+16
2.57975e+16
2.75026e+16
2.90034e+16
3.04677e+16
3.23342e+16
3.35537e+16
3.50579e+16
3.66404e+16
3.78293e+16
3.92405e+16
4.0627e+16
4.13402e+16
4.23361e+16
4.37366e+16
4.46923e+16
4.60835e+16
4.62925e+16
4.74937e+16
4.81831e+16
4.88063e+16
4.93573e+16
4.94522e+16
4.98971e+16
5.00753e+16
5.10995e+16
5.12304e+16
5.13298e+16
5.13338e+16
5.17094e+16
5.11661e+16
5.12508e+16
5.0379e+16
5.04257e+16
5.01061e+16
4.96443e+16
4.89762e+16
4.90282e+16
4.78187e+16
4.72691e+16
4.60148e+16
4.57365e+16
4.48398e+16
4.37529e+16
4.28228e+16
4.13956e+16
3.97971e+16
3.85547e+16
3.73773e+16
3.67948e+16
3.46303e+16
3.32652e+16
3.19439e+16
3.03329e+16
2.87808e+16
2.7361e+16
2.52107e+16
2.40362e+16
2.25011e+16
2.07464e+16
1.86175e+16
1.66905e+16
1.48471e+16
1.30838e+16
1.10788e+16
9.14842e+15
7.20359e+15
5.18353e+15
3.14809e+15
3.34764e+15
5.54097e+15
7.66802e+15
9.85447e+15
1.16954e+16
1.37923e+16
1.55166e+16
1.73409e+16
1.93547e+16
2.17833e+16
2.34886e+16
2.47986e+16
2.69868e+16
2.89537e+16
3.07037e+16
3.21956e+16
3.38315e+16
3.54408e+16
3.68262e+16
3.81848e+16
4.00591e+16
4.09134e+16
4.2254e+16
4.3381e+16
4.49011e+16
4.58555e+16
4.69733e+16
4.79872e+16
4.86261e+16
5.03351e+16
5.01831e+16
5.10438e+16
5.15003e+16
5.14425e+16
5.21724e+16
5.24702e+16
5.31862e+16
5.31945e+16
5.36083e+16
5.36903e+16
5.34862e+16
5.37327e+16
5.34249e+16
5.30435e+16
5.27603e+16
5.19111e+16
5.2269e+16
5.15846e+16
5.09999e+16
5.00504e+16
4.90407e+16
4.85999e+16
4.76962e+16
4.65908e+16
4.58362e+16
4.44507e+16
4.33584e+16
4.17991e+16
4.06806e+16
3.94662e+16
3.80272e+16
3.62383e+16
3.48916e+16
3.36451e+16
3.20572e+16
2.99232e+16
2.82714e+16
2.69302e+16
2.49712e+16
2.33358e+16
2.16933e+16
1.93992e+16
1.76678e+16
1.59188e+16
1.36003e+16
1.16038e+16
9.37435e+15
7.57182e+15
5.5096e+15
3.3433e+15
3.61513e+15
5.97522e+15
7.92141e+15
1.02075e+16
1.19715e+16
1.44495e+16
1.65663e+16
1.81847e+16
2.07825e+16
2.25904e+16
2.40545e+16
2.62439e+16
2.78568e+16
3.02576e+16
3.21764e+16
3.3612e+16
3.55551e+16
3.70722e+16
3.83778e+16
4.00544e+16
4.11405e+16
4.26085e+16
4.36929e+16
4.59591e+16
4.7129e+16
4.7742e+16
4.86344e+16
4.9763e+16
5.0555e+16
5.18113e+16
5.22507e+16
5.31624e+16
5.35477e+16
5.43866e+16
5.45687e+16
5.49774e+16
5.53642e+16
5.59829e+16
5.54454e+16
5.58636e+16
5.57062e+16
5.54129e+16
5.61335e+16
5.51002e+16
5.52962e+16
5.46487e+16
5.47663e+16
5.41127e+16
5.32535e+16
5.20545e+16
5.12492e+16
5.06425e+16
5.00787e+16
4.89061e+16
4.75009e+16
4.67386e+16
4.50538e+16
4.39286e+16
4.23264e+16
4.13381e+16
3.94719e+16
3.78277e+16
3.60691e+16
3.53015e+16
3.35446e+16
3.15913e+16
2.99073e+16
2.8316e+16
2.59936e+16
2.43114e+16
2.24436e+16
2.03011e+16
1.82917e+16
1.64328e+16
1.43173e+16
1.20587e+16
1.00561e+16
7.88049e+15
5.63886e+15
3.48586e+15
3.58317e+15
6.1799e+15
8.63755e+15
1.04758e+16
1.26392e+16
1.51088e+16
1.70546e+16
1.93104e+16
2.12784e+16
2.34342e+16
2.51833e+16
2.72394e+16
2.94299e+16
3.13001e+16
3.32867e+16
3.50858e+16
3.71078e+16
3.86776e+16
4.04017e+16
4.19615e+16
4.3147e+16
4.45569e+16
4.53922e+16
4.74515e+16
4.88364e+16
4.96849e+16
5.07948e+16
5.1803e+16
5.26104e+16
5.39631e+16
5.47126e+16
5.56031e+16
5.5868e+16
5.59898e+16
5.68431e+16
5.75088e+16
5.80549e+16
5.77597e+16
5.81496e+16
5.80819e+16
5.78401e+16
5.81506e+16
5.82186e+16
5.80138e+16
5.77087e+16
5.69086e+16
5.64487e+16
5.56247e+16
5.50739e+16
5.42465e+16
5.39336e+16
5.2903e+16
5.21768e+16
5.09785e+16
4.94806e+16
4.87139e+16
4.71316e+16
4.60934e+16
4.43613e+16
4.30429e+16
4.16819e+16
3.99703e+16
3.81133e+16
3.65725e+16
3.51433e+16
3.31421e+16
3.14312e+16
2.94148e+16
2.72798e+16
2.53532e+16
2.37185e+16
2.10209e+16
1.91327e+16
1.67832e+16
1.48348e+16
1.26031e+16
1.05058e+16
8.20487e+15
5.91064e+15
3.67929e+15
3.8391e+15
6.54425e+15
8.74706e+15
1.08637e+16
1.34863e+16
1.57159e+16
1.77803e+16
1.99777e+16
2.17451e+16
2.41596e+16
2.60763e+16
2.81874e+16
3.05562e+16
3.23677e+16
3.45628e+16
3.67287e+16
3.83515e+16
4.03899e+16
4.18485e+16
4.3184e+16
4.48104e+16
4.63107e+16
4.77701e+16
4.90691e+16
5.06644e+16
5.23561e+16
5.28803e+16
5.38413e+16
5.49693e+16
5.62158e+16
5.69237e+16
5.72796e+16
5.85015e+16
5.92883e+16
5.92741e+16
6.00626e+16
6.00561e+16
6.06801e+16
6.05194e+16
6.04984e+16
6.0293e+16
6.04658e+16
6.03856e+16
6.07095e+16
5.96205e+16
5.96007e+16
5.8458e+16
5.77639e+16
5.72186e+16
5.68688e+16
5.6223e+16
5.47666e+16
5.34975e+16
5.25498e+16
5.14149e+16
5.0068e+16
4.85519e+16
4.74302e+16
4.58994e+16
4.45629e+16
4.31061e+16
4.15299e+16
3.93282e+16
3.82588e+16
3.61571e+16
3.42208e+16
3.22691e+16
3.05752e+16
2.81941e+16
2.65256e+16
2.4384e+16
2.19048e+16
1.99458e+16
1.7579e+16
1.55441e+16
1.3109e+16
1.06753e+16
8.45003e+15
6.25287e+15
3.86529e+15
4.01018e+15
6.72608e+15
9.21568e+15
1.16494e+16
1.3799e+16
1.63164e+16
1.84068e+16
2.0567e+16
2.2821e+16
2.55105e+16
2.73561e+16
2.98293e+16
3.19557e+16
3.35954e+16
3.58299e+16
3.74288e+16
3.96763e+16
4.15929e+16
4.32597e+16
4.47206e+16
4.65212e+16
4.81681e+16
4.98687e+16
5.13687e+16
5.24381e+16
5.37565e+16
5.5399e+16
5.60182e+16
5.67389e+16
5.74113e+16
5.91131e+16
5.94875e+16
6.0089e+16
6.11478e+16
6.1763e+16
6.21805e+16
6.21251e+16
6.27789e+16
6.27229e+16
6.32487e+16
6.287e+16
6.26155e+16
6.21046e+16
6.24403e+16
6.19374e+16
6.16025e+16
6.0609e+16
5.97016e+16
5.97979e+16
5.86675e+16
5.79312e+16
5.68735e+16
5.60546e+16
5.43366e+16
5.34886e+16
5.24238e+16
5.02308e+16
4.88978e+16
4.80168e+16
4.62954e+16
4.47428e+16
4.32087e+16
4.09631e+16
3.98072e+16
3.79326e+16
3.5742e+16
3.35142e+16
3.15379e+16
2.95726e+16
2.72275e+16
2.49644e+16
2.29502e+16
2.09976e+16
1.82623e+16
1.63661e+16
1.36479e+16
1.1266e+16
8.9072e+15
6.48007e+15
3.75228e+15
4.15229e+15
6.79037e+15
9.51546e+15
1.17738e+16
1.4283e+16
1.68445e+16
1.93034e+16
2.15574e+16
2.38747e+16
2.61512e+16
2.81958e+16
3.05257e+16
3.26972e+16
3.49533e+16
3.71287e+16
3.93366e+16
4.13209e+16
4.25377e+16
4.46096e+16
4.64593e+16
4.84082e+16
4.98254e+16
5.14429e+16
5.30255e+16
5.40675e+16
5.53421e+16
5.67876e+16
5.79606e+16
5.85802e+16
5.99695e+16
6.07064e+16
6.14856e+16
6.2358e+16
6.31414e+16
6.38078e+16
6.47287e+16
6.46748e+16
6.47864e+16
6.49715e+16
6.46886e+16
6.47971e+16
6.50686e+16
6.52619e+16
6.47669e+16
6.46162e+16
6.43812e+16
6.29851e+16
6.20969e+16
6.14986e+16
6.05234e+16
5.99307e+16
5.91332e+16
5.79513e+16
5.68784e+16
5.51658e+16
5.46046e+16
5.25766e+16
5.11289e+16
4.95295e+16
4.78955e+16
4.59996e+16
4.49604e+16
4.25625e+16
4.08585e+16
3.88561e+16
3.71303e+16
3.48197e+16
3.25963e+16
3.0446e+16
2.83349e+16
2.60083e+16
2.37219e+16
2.10943e+16
1.87906e+16
1.66312e+16
1.398e+16
1.17344e+16
9.22021e+15
6.6966e+15
3.89025e+15
4.25921e+15
7.01182e+15
9.6688e+15
1.23122e+16
1.4819e+16
1.73789e+16
1.98348e+16
2.23595e+16
2.44282e+16
2.69201e+16
2.96129e+16
3.17714e+16
3.39668e+16
3.60787e+16
3.82547e+16
4.02652e+16
4.22969e+16
4.37431e+16
4.63935e+16
4.78919e+16
4.89871e+16
5.11817e+16
5.2757e+16
5.42444e+16
5.58706e+16
5.72002e+16
5.88308e+16
5.99115e+16
6.08838e+16
6.17263e+16
6.31172e+16
6.43778e+16
6.47943e+16
6.50793e+16
6.62089e+16
6.61383e+16
6.69927e+16
6.73338e+16
6.74194e+16
6.77397e+16
6.73855e+16
6.74862e+16
6.68608e+16
6.73025e+16
6.67301e+16
6.58473e+16
6.53666e+16
6.45974e+16
6.42114e+16
6.32479e+16
6.19811e+16
6.10491e+16
5.98502e+16
5.84089e+16
5.74518e+16
5.60326e+16
5.45607e+16
5.24823e+16
5.1106e+16
4.92024e+16
4.70226e+16
4.58477e+16
4.39688e+16
4.21767e+16
4.03051e+16
3.82893e+16
3.64114e+16
3.40069e+16
3.19365e+16
2.92831e+16
2.68701e+16
2.45818e+16
2.17037e+16
1.96819e+16
1.70768e+16
1.45065e+16
1.19868e+16
9.50134e+15
6.9321e+15
4.11786e+15
4.40541e+15
7.11842e+15
9.98604e+15
1.27946e+16
1.53442e+16
1.77128e+16
2.02984e+16
2.28306e+16
2.55708e+16
2.75568e+16
2.99848e+16
3.25239e+16
3.47453e+16
3.72286e+16
3.95537e+16
4.13142e+16
4.35659e+16
4.53232e+16
4.71598e+16
4.93617e+16
5.13697e+16
5.27682e+16
5.46861e+16
5.60874e+16
5.82287e+16
5.8949e+16
6.05556e+16
6.17216e+16
6.24691e+16
6.36625e+16
6.46844e+16
6.55688e+16
6.6802e+16
6.76351e+16
6.73447e+16
6.84875e+16
6.85087e+16
6.95669e+16
6.95157e+16
6.95737e+16
6.96833e+16
6.96494e+16
6.92371e+16
6.89548e+16
6.90895e+16
6.88647e+16
6.69488e+16
6.70678e+16
6.58223e+16
6.5258e+16
6.4036e+16
6.33767e+16
6.16184e+16
6.01665e+16
5.89559e+16
5.77202e+16
5.61286e+16
5.45836e+16
5.29043e+16
5.10199e+16
4.92294e+16
4.74926e+16
4.55756e+16
4.31358e+16
4.12575e+16
3.92127e+16
3.70167e+16
3.485e+16
3.23463e+16
2.98649e+16
2.71224e+16
2.54285e+16
2.26438e+16
2.01992e+16
1.7628e+16
1.51269e+16
1.25523e+16
9.83064e+15
7.01499e+15
4.26868e+15
4.48859e+15
7.35075e+15
1.02088e+16
1.31174e+16
1.57229e+16
1.8181e+16
2.09653e+16
2.35654e+16
2.62098e+16
2.86976e+16
3.14411e+16
3.34515e+16
3.61922e+16
3.81594e+16
4.01107e+16
4.27088e+16
4.45418e+16
4.68851e+16
4.8688e+16
5.10753e+16
5.28005e+16
5.41065e+16
5.59808e+16
5.80223e+16
5.91957e+16
6.11222e+16
6.27349e+16
6.35158e+16
6.49082e+16
6.55956e+16
6.69574e+16
6.84087e+16
6.8878e+16
6.9431e+16
6.94677e+16
7.05286e+16
7.1032e+16
7.09893e+16
7.10578e+16
7.20036e+16
7.21938e+16
7.15052e+16
7.11704e+16
7.1786e+16
7.10609e+16
7.05611e+16
6.8531e+16
6.87332e+16
6.82767e+16
6.71763e+16
6.60095e+16
6.51461e+16
6.36683e+16
6.21863e+16
6.04601e+16
5.95624e+16
5.78051e+16
5.59933e+16
5.43806e+16
5.28207e+16
5.08353e+16
4.85252e+16
4.67147e+16
4.46577e+16
4.22325e+16
4.07411e+16
3.86557e+16
3.56118e+16
3.33606e+16
3.09601e+16
2.83995e+16
2.59532e+16
2.34124e+16
2.06191e+16
1.82912e+16
1.54549e+16
1.29001e+16
9.98139e+15
7.21942e+15
4.29261e+15
4.59771e+15
7.59507e+15
1.05875e+16
1.34383e+16
1.61093e+16
1.88024e+16
2.17136e+16
2.4484e+16
2.67915e+16
2.98545e+16
3.22664e+16
3.44189e+16
3.69839e+16
3.92614e+16
4.14029e+16
4.38419e+16
4.5895e+16
4.77524e+16
5.02365e+16
5.21908e+16
5.405e+16
5.58223e+16
5.77475e+16
6.00548e+16
6.11011e+16
6.22451e+16
6.4301e+16
6.52331e+16
6.62318e+16
6.74636e+16
6.84638e+16
6.92517e+16
7.05776e+16
7.11124e+16
7.22353e+16
7.27193e+16
7.34896e+16
7.35065e+16
7.35652e+16
7.42889e+16
7.42115e+16
7.36184e+16
7.36952e+16
7.33618e+16
7.24747e+16
7.18495e+16
7.1468e+16
7.05505e+16
7.01889e+16
6.88894e+16
6.82364e+16
6.65847e+16
6.52313e+16
6.41877e+16
6.28007e+16
6.06358e+16
5.95324e+16
5.78737e+16
5.61268e+16
5.44539e+16
5.19845e+16
5.00402e+16
4.83312e+16
4.60434e+16
4.41043e+16
4.16577e+16
3.88053e+16
3.68301e+16
3.41386e+16
3.15629e+16
2.90973e+16
2.68722e+16
2.40937e+16
2.15978e+16
1.90416e+16
1.58242e+16
1.33215e+16
1.05543e+16
7.60124e+15
4.4495e+15
4.68053e+15
7.84127e+15
1.10899e+16
1.37539e+16
1.66827e+16
1.96782e+16
2.23184e+16
2.54577e+16
2.78573e+16
3.03414e+16
3.31111e+16
3.55418e+16
3.83821e+16
4.01002e+16
4.26832e+16
4.51891e+16
4.71806e+16
4.94285e+16
5.15733e+16
5.35562e+16
5.56049e+16
5.74122e+16
5.98834e+16
6.11845e+16
6.26511e+16
6.43621e+16
6.63834e+16
6.70511e+16
6.79108e+16
6.99669e+16
7.07053e+16
7.1691e+16
7.25317e+16
7.33677e+16
7.42482e+16
7.53395e+16
7.56792e+16
7.55892e+16
7.55657e+16
7.53032e+16
7.58563e+16
7.60426e+16
7.56144e+16
7.48919e+16
7.43919e+16
7.38599e+16
7.32956e+16
7.29334e+16
7.16384e+16
7.06533e+16
6.92424e+16
6.83884e+16
6.70052e+16
6.56422e+16
6.45319e+16
6.29377e+16
6.09536e+16
5.91165e+16
5.74136e+16
5.53704e+16
5.36091e+16
5.1613e+16
4.9668e+16
4.77211e+16
4.50924e+16
4.28446e+16
4.01375e+16
3.78004e+16
3.47518e+16
3.22505e+16
2.96168e+16
2.74553e+16
2.49853e+16
2.21448e+16
1.93169e+16
1.64045e+16
1.37784e+16
1.07638e+16
7.71302e+15
4.5924e+15
4.74919e+15
8.16818e+15
1.12216e+16
1.42989e+16
1.72371e+16
1.98935e+16
2.27583e+16
2.58589e+16
2.84394e+16
3.10603e+16
3.37501e+16
3.68845e+16
3.90971e+16
4.15141e+16
4.41301e+16
4.62854e+16
4.8457e+16
5.06469e+16
5.28515e+16
5.5131e+16
5.6616e+16
5.90224e+16
6.05205e+16
6.28411e+16
6.42742e+16
6.55574e+16
6.75126e+16
6.87301e+16
7.03686e+16
7.16639e+16
7.30458e+16
7.35497e+16
7.41982e+16
7.59614e+16
7.59981e+16
7.68133e+16
7.70368e+16
7.73721e+16
7.75647e+16
7.69512e+16
7.76966e+16
7.70926e+16
7.71209e+16
7.69408e+16
7.65559e+16
7.60468e+16
7.48089e+16
7.39557e+16
7.36382e+16
7.25143e+16
7.17345e+16
7.01546e+16
6.89306e+16
6.73723e+16
6.60948e+16
6.42796e+16
6.21201e+16
6.03359e+16
5.89153e+16
5.69031e+16
5.50235e+16
5.24004e+16