/*--------------------------------*- C++ -*----------------------------------*\
  =========                 |
  \\      /  F ield         | OpenFOAM: The Open Source CFD Toolbox
   \\    /   O peration     | Website:  https://openfoam.org
    \\  /    A nd           | Version:  6
     \\/     M anipulation  |
\*---------------------------------------------------------------------------*/
FoamFile
{
    version     2.0;
    format      ascii;
    class       volScalarField;
    location    "600";
    object      dnp5;
}
// * * * * * * * * * * * * * * * * * * * * * * * * * * * * * * * * * * * * * //

dimensions      [0 -3 0 0 0 0 0];

internalField   nonuniform List<scalar> 
6400
(
4.04901e+14
8.88939e+14
1.29158e+15
1.6695e+15
2.03685e+15
2.37917e+15
2.6862e+15
3.04411e+15
3.38464e+15
3.68804e+15
3.97506e+15
4.34119e+15
4.63191e+15
4.9031e+15
5.25513e+15
5.55808e+15
5.86897e+15
6.07928e+15
6.36443e+15
6.58433e+15
6.86651e+15
7.06902e+15
7.1891e+15
7.39445e+15
7.65247e+15
7.78932e+15
7.99832e+15
8.14521e+15
8.34219e+15
8.48092e+15
8.71912e+15
8.70309e+15
8.84711e+15
8.91371e+15
9.01438e+15
9.00753e+15
9.15022e+15
9.11638e+15
9.13942e+15
9.12106e+15
9.25532e+15
9.17102e+15
9.18744e+15
9.0234e+15
8.93798e+15
8.88732e+15
8.89726e+15
8.79818e+15
8.65797e+15
8.64701e+15
8.48979e+15
8.45683e+15
8.21455e+15
8.0207e+15
7.80627e+15
7.61782e+15
7.40929e+15
7.23618e+15
6.99e+15
6.73745e+15
6.46742e+15
6.22442e+15
5.95881e+15
5.68689e+15
5.47131e+15
5.18215e+15
4.93154e+15
4.57682e+15
4.34271e+15
4.0397e+15
3.72205e+15
3.37967e+15
3.00855e+15
2.70545e+15
2.36877e+15
2.06556e+15
1.68296e+15
1.31113e+15
9.39006e+14
4.12772e+14
9.56419e+14
2.17147e+15
3.21594e+15
4.18406e+15
5.01852e+15
5.87012e+15
6.65044e+15
7.5224e+15
8.41633e+15
9.07304e+15
9.82271e+15
1.06411e+16
1.14898e+16
1.21382e+16
1.29895e+16
1.37961e+16
1.44387e+16
1.50811e+16
1.56675e+16
1.62975e+16
1.68455e+16
1.74597e+16
1.78075e+16
1.83256e+16
1.89448e+16
1.93622e+16
1.98287e+16
2.02358e+16
2.07177e+16
2.09293e+16
2.12975e+16
2.14965e+16
2.19162e+16
2.19476e+16
2.21831e+16
2.2341e+16
2.25314e+16
2.25701e+16
2.26446e+16
2.26618e+16
2.27757e+16
2.27723e+16
2.26376e+16
2.23714e+16
2.2122e+16
2.1987e+16
2.19473e+16
2.16541e+16
2.14858e+16
2.12966e+16
2.10414e+16
2.07476e+16
2.03559e+16
1.98355e+16
1.93066e+16
1.88034e+16
1.8301e+16
1.78357e+16
1.73481e+16
1.66707e+16
1.59934e+16
1.53835e+16
1.47145e+16
1.40121e+16
1.35131e+16
1.28845e+16
1.21417e+16
1.13844e+16
1.0645e+16
1.0021e+16
9.21786e+15
8.36234e+15
7.45773e+15
6.69489e+15
5.88066e+15
5.01106e+15
4.15027e+15
3.21813e+15
2.29093e+15
9.67514e+14
1.41039e+15
3.25817e+15
4.77612e+15
6.22306e+15
7.42138e+15
8.66854e+15
9.88655e+15
1.11581e+16
1.24528e+16
1.34763e+16
1.45608e+16
1.57293e+16
1.69619e+16
1.80567e+16
1.93356e+16
2.04361e+16
2.1362e+16
2.23076e+16
2.32862e+16
2.42275e+16
2.5022e+16
2.59225e+16
2.64698e+16
2.72827e+16
2.81483e+16
2.88171e+16
2.9481e+16
3.02269e+16
3.06736e+16
3.10326e+16
3.15597e+16
3.20342e+16
3.23854e+16
3.26714e+16
3.2985e+16
3.32915e+16
3.35148e+16
3.35714e+16
3.34472e+16
3.35454e+16
3.35959e+16
3.36503e+16
3.34859e+16
3.32186e+16
3.28692e+16
3.26114e+16
3.24505e+16
3.21345e+16
3.18138e+16
3.15376e+16
3.11716e+16
3.06632e+16
3.01349e+16
2.94286e+16
2.8684e+16
2.7958e+16
2.71562e+16
2.65272e+16
2.57513e+16
2.47987e+16
2.37426e+16
2.2892e+16
2.18939e+16
2.08242e+16
2.00089e+16
1.91039e+16
1.80239e+16
1.69549e+16
1.57954e+16
1.48444e+16
1.37134e+16
1.24991e+16
1.11405e+16
1.00462e+16
8.73546e+15
7.44235e+15
6.20842e+15
4.79266e+15
3.32283e+15
1.42317e+15
1.8047e+15
4.22349e+15
6.22117e+15
8.02839e+15
9.64254e+15
1.12411e+16
1.28261e+16
1.44175e+16
1.61024e+16
1.75268e+16
1.88955e+16
2.03563e+16
2.1793e+16
2.34448e+16
2.49053e+16
2.62737e+16
2.75392e+16
2.87625e+16
3.00653e+16
3.12049e+16
3.24085e+16
3.34168e+16
3.42806e+16
3.53816e+16
3.6394e+16
3.72975e+16
3.7896e+16
3.87575e+16
3.94669e+16
4.00355e+16
4.07512e+16
4.12286e+16
4.16494e+16
4.21525e+16
4.25211e+16
4.29128e+16
4.32324e+16
4.33613e+16
4.3291e+16
4.3352e+16
4.34295e+16
4.34183e+16
4.31311e+16
4.26966e+16
4.24073e+16
4.2092e+16
4.18152e+16
4.15427e+16
4.11329e+16
4.06328e+16
4.00999e+16
3.94628e+16
3.88044e+16
3.8014e+16
3.71272e+16
3.6209e+16
3.52443e+16
3.42046e+16
3.31522e+16
3.20769e+16
3.07671e+16
2.95025e+16
2.82097e+16
2.69788e+16
2.58863e+16
2.46114e+16
2.33232e+16
2.20309e+16
2.04748e+16
1.91005e+16
1.76304e+16
1.60712e+16
1.4448e+16
1.28735e+16
1.12531e+16
9.58795e+15
7.98612e+15
6.20022e+15
4.20467e+15
1.80612e+15
2.18796e+15
5.21943e+15
7.53257e+15
9.69788e+15
1.16461e+16
1.36511e+16
1.55738e+16
1.75134e+16
1.94264e+16
2.12625e+16
2.30097e+16
2.46414e+16
2.64134e+16
2.84219e+16
3.02286e+16
3.18135e+16
3.33859e+16
3.48668e+16
3.62698e+16
3.77604e+16
3.90918e+16
4.03745e+16
4.15896e+16
4.28914e+16
4.41503e+16
4.52161e+16
4.60699e+16
4.69651e+16
4.77869e+16
4.85819e+16
4.91693e+16
4.97814e+16
5.04324e+16
5.08717e+16
5.14535e+16
5.18997e+16
5.23347e+16
5.27001e+16
5.27267e+16
5.27691e+16
5.27081e+16
5.26346e+16
5.23231e+16
5.18518e+16
5.14159e+16
5.12541e+16
5.09017e+16
5.04041e+16
4.99841e+16
4.92467e+16
4.85622e+16
4.76617e+16
4.70079e+16
4.63143e+16
4.52198e+16
4.40979e+16
4.28973e+16
4.15324e+16
4.0237e+16
3.8999e+16
3.74787e+16
3.57673e+16
3.42464e+16
3.27415e+16
3.13598e+16
2.98985e+16
2.84019e+16
2.67978e+16
2.48453e+16
2.3133e+16
2.12419e+16
1.93287e+16
1.74912e+16
1.5445e+16
1.34594e+16
1.1577e+16
9.62528e+15
7.52421e+15
5.05997e+15
2.16209e+15
2.57108e+15
6.08517e+15
8.88025e+15
1.13939e+16
1.35891e+16
1.59007e+16
1.81779e+16
2.04836e+16
2.26749e+16
2.48253e+16
2.68516e+16
2.88329e+16
3.09674e+16
3.32138e+16
3.52241e+16
3.69891e+16
3.89181e+16
4.06333e+16
4.23388e+16
4.41934e+16
4.57753e+16
4.71954e+16
4.85632e+16
5.00825e+16
5.15131e+16
5.28486e+16
5.39131e+16
5.49221e+16
5.58744e+16
5.67683e+16
5.74056e+16
5.82446e+16
5.90556e+16
5.96946e+16
6.03341e+16
6.08793e+16
6.13782e+16
6.17272e+16
6.18154e+16
6.16401e+16
6.16786e+16
6.15359e+16
6.11871e+16
6.08912e+16
6.05173e+16
6.02197e+16
5.97043e+16
5.9109e+16
5.84583e+16
5.76401e+16
5.68092e+16
5.58655e+16
5.49174e+16
5.39594e+16
5.28462e+16
5.16777e+16
5.02734e+16
4.86447e+16
4.71303e+16
4.57412e+16
4.40403e+16
4.2088e+16
4.02744e+16
3.83833e+16
3.6737e+16
3.5066e+16
3.33513e+16
3.12612e+16
2.90909e+16
2.70534e+16
2.4806e+16
2.25522e+16
2.03268e+16
1.79873e+16
1.56765e+16
1.35218e+16
1.12215e+16
8.80754e+15
5.94022e+15
2.55261e+15
2.91455e+15
6.89641e+15
1.01605e+16
1.30103e+16
1.55185e+16
1.81273e+16
2.07246e+16
2.33189e+16
2.58352e+16
2.83592e+16
3.06515e+16
3.2988e+16
3.54352e+16
3.77838e+16
3.9991e+16
4.22132e+16
4.42833e+16
4.64708e+16
4.85559e+16
5.04764e+16
5.21737e+16
5.38877e+16
5.54096e+16
5.70214e+16
5.87245e+16
6.03803e+16
6.17852e+16
6.27924e+16
6.37423e+16
6.49066e+16
6.57827e+16
6.66515e+16
6.74544e+16
6.82064e+16
6.89932e+16
6.96281e+16
7.02337e+16
7.03989e+16
7.03888e+16
7.04752e+16
7.04873e+16
7.0371e+16
7.00988e+16
6.97795e+16
6.92338e+16
6.88404e+16
6.83963e+16
6.76883e+16
6.68059e+16
6.58604e+16
6.48703e+16
6.39169e+16
6.29164e+16
6.14853e+16
6.02874e+16
5.91855e+16
5.75796e+16
5.57059e+16
5.38667e+16
5.22879e+16
5.03876e+16
4.82586e+16
4.60482e+16
4.39478e+16
4.20242e+16
4.00398e+16
3.82031e+16
3.58303e+16
3.33089e+16
3.095e+16
2.83031e+16
2.57548e+16
2.31871e+16
2.05313e+16
1.78561e+16
1.53648e+16
1.26964e+16
1.00796e+16
6.8917e+15
2.96734e+15
3.26853e+15
7.76784e+15
1.14565e+16
1.46307e+16
1.75167e+16
2.04486e+16
2.33564e+16
2.61347e+16
2.9065e+16
3.18588e+16
3.44666e+16
3.71095e+16
3.99049e+16
4.23879e+16
4.49166e+16
4.74535e+16
4.99202e+16
5.23302e+16
5.44899e+16
5.66347e+16
5.85213e+16
6.0441e+16
6.23625e+16
6.41849e+16
6.59869e+16
6.77181e+16
6.93083e+16
7.04528e+16
7.19637e+16
7.31317e+16
7.39803e+16
7.49386e+16
7.58534e+16
7.671e+16
7.75295e+16
7.81334e+16
7.87957e+16
7.91422e+16
7.92995e+16
7.93287e+16
7.92578e+16
7.90161e+16
7.87755e+16
7.85253e+16
7.77833e+16
7.72068e+16
7.67949e+16
7.59882e+16
7.50952e+16
7.39701e+16
7.29964e+16
7.18589e+16
7.04166e+16
6.90749e+16
6.77072e+16
6.6318e+16
6.46476e+16
6.2835e+16
6.07153e+16
5.85519e+16
5.63911e+16
5.41281e+16
5.17777e+16
4.9388e+16
4.725e+16
4.49854e+16
4.26965e+16
4.01815e+16
3.75154e+16
3.46863e+16
3.18361e+16
2.89407e+16
2.60521e+16
2.30016e+16
2.0122e+16
1.7202e+16
1.42251e+16
1.12913e+16
7.74771e+15
3.30983e+15
3.60168e+15
8.55506e+15
1.27114e+16
1.62391e+16
1.95536e+16
2.26364e+16
2.59239e+16
2.90761e+16
3.21817e+16
3.5327e+16
3.83783e+16
4.11095e+16
4.4231e+16
4.72697e+16
5.0043e+16
5.25094e+16
5.53929e+16
5.82412e+16
6.0534e+16
6.28439e+16
6.50503e+16
6.70856e+16
6.91618e+16
7.13899e+16
7.32629e+16
7.51511e+16
7.68726e+16
7.82501e+16
7.97444e+16
8.11093e+16
8.23458e+16
8.34542e+16
8.45651e+16
8.5334e+16
8.60675e+16
8.68055e+16
8.74772e+16
8.79168e+16
8.81333e+16
8.81172e+16
8.79697e+16
8.77052e+16
8.72794e+16
8.68656e+16
8.6296e+16
8.56058e+16
8.5003e+16
8.42005e+16
8.33852e+16
8.2246e+16
8.09627e+16
7.95953e+16
7.81727e+16
7.67721e+16
7.51776e+16
7.35431e+16
7.16619e+16
6.95601e+16
6.72611e+16
6.49717e+16
6.24472e+16
6.01565e+16
5.76222e+16
5.49767e+16
5.2306e+16
4.98194e+16
4.72406e+16
4.43163e+16
4.13804e+16
3.83336e+16
3.53618e+16
3.21916e+16
2.87936e+16
2.54671e+16
2.2288e+16
1.90963e+16
1.57694e+16
1.24188e+16
8.47273e+15
3.64553e+15
3.97439e+15
9.30133e+15
1.38296e+16
1.77504e+16
2.14246e+16
2.4888e+16
2.84408e+16
3.18405e+16
3.53662e+16
3.88725e+16
4.2296e+16
4.52774e+16
4.83912e+16
5.18529e+16
5.49671e+16
5.79204e+16
6.09651e+16
6.3886e+16
6.65802e+16
6.91898e+16
7.16597e+16
7.38398e+16
7.61851e+16
7.85869e+16
8.07979e+16
8.28721e+16
8.46226e+16
8.62824e+16
8.7893e+16
8.9321e+16
9.06954e+16
9.19106e+16
9.30252e+16
9.39186e+16
9.47982e+16
9.54086e+16
9.60705e+16
9.64153e+16
9.66615e+16
9.68743e+16
9.68025e+16
9.64402e+16
9.60536e+16
9.54983e+16
9.49304e+16
9.42075e+16
9.35188e+16
9.26446e+16
9.16867e+16
9.04925e+16
8.9166e+16
8.76756e+16
8.61308e+16
8.44769e+16
8.26327e+16
8.08057e+16
7.84751e+16
7.61738e+16
7.39342e+16
7.13901e+16
6.86406e+16
6.58076e+16
6.30694e+16
6.03303e+16
5.76358e+16
5.48899e+16
5.17666e+16
4.85409e+16
4.51527e+16
4.19947e+16
3.86914e+16
3.51417e+16
3.13474e+16
2.78658e+16
2.43773e+16
2.09202e+16
1.72489e+16
1.34929e+16
9.26992e+15
3.93509e+15
4.39273e+15
1.01364e+16
1.4978e+16
1.92154e+16
2.3134e+16
2.70733e+16
3.09444e+16
3.46439e+16
3.85491e+16
4.2383e+16
4.62163e+16
4.93446e+16
5.25504e+16
5.62648e+16
5.97715e+16
6.30747e+16
6.63737e+16
6.94968e+16
7.25778e+16
7.55642e+16
7.82158e+16
8.07255e+16
8.30395e+16
8.54277e+16
8.80245e+16
9.03111e+16
9.23083e+16
9.40489e+16
9.58745e+16
9.73337e+16
9.87514e+16
1.00039e+17
1.01295e+17
1.02421e+17
1.03369e+17
1.04066e+17
1.04689e+17
1.05198e+17
1.05459e+17
1.05806e+17
1.05567e+17
1.05224e+17
1.04844e+17
1.04161e+17
1.03498e+17
1.02728e+17
1.02091e+17
1.01131e+17
1.00008e+17
9.87619e+16
9.72946e+16
9.55712e+16
9.38472e+16
9.20446e+16
9.00908e+16
8.78575e+16
8.52957e+16
8.30434e+16
8.05434e+16
7.79356e+16
7.50823e+16
7.19112e+16
6.89977e+16
6.59013e+16
6.28706e+16
5.98078e+16
5.62643e+16
5.26511e+16
4.92085e+16
4.5581e+16
4.19905e+16
3.8169e+16
3.41668e+16
3.03562e+16
2.65676e+16
2.27228e+16
1.86801e+16
1.46392e+16
1.00131e+16
4.24976e+15
4.83587e+15
1.10271e+16
1.61194e+16
2.07409e+16
2.50553e+16
2.92516e+16
3.3453e+16
3.74716e+16
4.14862e+16
4.56923e+16
4.97605e+16
5.3381e+16
5.68386e+16
6.07478e+16
6.45752e+16
6.83609e+16
7.19379e+16
7.52386e+16
7.85276e+16
8.16674e+16
8.46156e+16
8.74913e+16
8.99315e+16
9.27687e+16
9.54669e+16
9.77742e+16
9.99102e+16
1.01775e+17
1.0362e+17
1.05528e+17
1.07163e+17
1.08642e+17
1.09986e+17
1.10963e+17
1.11842e+17
1.12734e+17
1.13476e+17
1.13764e+17
1.13942e+17
1.14244e+17
1.14207e+17
1.13995e+17
1.13445e+17
1.12797e+17
1.12113e+17
1.11442e+17
1.10538e+17
1.09467e+17
1.08341e+17
1.06927e+17
1.05366e+17
1.03546e+17
1.01664e+17
9.97569e+16
9.75442e+16
9.50887e+16
9.25818e+16
8.98577e+16
8.71557e+16
8.45007e+16
8.15522e+16
7.82608e+16
7.49348e+16
7.15348e+16
6.80468e+16
6.44804e+16
6.07909e+16
5.68741e+16
5.30995e+16
4.92229e+16
4.52541e+16
4.12979e+16
3.69532e+16
3.27452e+16
2.86263e+16
2.44442e+16
2.02475e+16
1.57761e+16
1.07729e+16
4.59166e+15
5.16806e+15
1.19156e+16
1.73655e+16
2.22375e+16
2.69499e+16
3.15195e+16
3.59782e+16
4.04822e+16
4.45695e+16
4.90763e+16
5.34375e+16
5.75155e+16
6.14948e+16
6.55148e+16
6.94388e+16
7.35297e+16
7.72243e+16
8.07696e+16
8.43248e+16
8.77401e+16
9.1105e+16
9.43645e+16
9.71454e+16
1.00198e+17
1.03086e+17
1.05424e+17
1.07648e+17
1.0971e+17
1.1177e+17
1.13734e+17
1.1542e+17
1.1691e+17
1.18387e+17
1.19671e+17
1.2048e+17
1.21424e+17
1.21956e+17
1.22347e+17
1.22724e+17
1.229e+17
1.22934e+17
1.22579e+17
1.22267e+17
1.21665e+17
1.21024e+17
1.20149e+17
1.19203e+17
1.18122e+17
1.16786e+17
1.15251e+17
1.13513e+17
1.11545e+17
1.09472e+17
1.07202e+17
1.04871e+17
1.02345e+17
9.96521e+16
9.67736e+16
9.37866e+16
9.08151e+16
8.77236e+16
8.44281e+16
8.06582e+16
7.70434e+16
7.31322e+16
6.92741e+16
6.5291e+16
6.11555e+16
5.72411e+16
5.28858e+16
4.85384e+16
4.42905e+16
3.97241e+16
3.50715e+16
3.07015e+16
2.61479e+16
2.16441e+16
1.68812e+16
1.15745e+16
4.90225e+15
5.48313e+15
1.28082e+16
1.85877e+16
2.37982e+16
2.89259e+16
3.38263e+16
3.84969e+16
4.31693e+16
4.75854e+16
5.25451e+16
5.72209e+16
6.16933e+16
6.61515e+16
7.03592e+16
7.43875e+16
7.86429e+16
8.28642e+16
8.65934e+16
9.05728e+16
9.41792e+16
9.78067e+16
1.00938e+17
1.04187e+17
1.07417e+17
1.10527e+17
1.13189e+17
1.15437e+17
1.17708e+17
1.19736e+17
1.21897e+17
1.23659e+17
1.25432e+17
1.26972e+17
1.28139e+17
1.29039e+17
1.30105e+17
1.30763e+17
1.31254e+17
1.3167e+17
1.31761e+17
1.31765e+17
1.31392e+17
1.3085e+17
1.30116e+17
1.29295e+17
1.28411e+17
1.27497e+17
1.26354e+17
1.24993e+17
1.23288e+17
1.21419e+17
1.19337e+17
1.1695e+17
1.14627e+17
1.12056e+17
1.09305e+17
1.06482e+17
1.03586e+17
1.00287e+17
9.70751e+16
9.37605e+16
9.01003e+16
8.61771e+16
8.21945e+16
7.8035e+16
7.39218e+16
6.98412e+16
6.5651e+16
6.12989e+16
5.66162e+16
5.18729e+16
4.73617e+16
4.25532e+16
3.76249e+16
3.27712e+16
2.80821e+16
2.3005e+16
1.79538e+16
1.23006e+16
5.25684e+15
5.69474e+15
1.35409e+16
1.97268e+16
2.54304e+16
3.08055e+16
3.60945e+16
4.11932e+16
4.60521e+16
5.07903e+16
5.59478e+16
6.07894e+16
6.58089e+16
7.06526e+16
7.51335e+16
7.94745e+16
8.39402e+16
8.8311e+16
9.23291e+16
9.64602e+16
1.00486e+17
1.0429e+17
1.07636e+17
1.11159e+17
1.1459e+17
1.17814e+17
1.2049e+17
1.23192e+17
1.25696e+17
1.27912e+17
1.30149e+17
1.32184e+17
1.33869e+17
1.35462e+17
1.3674e+17
1.37785e+17
1.38631e+17
1.39432e+17
1.39916e+17
1.40398e+17
1.40369e+17
1.40287e+17
1.40019e+17
1.39506e+17
1.38655e+17
1.37897e+17
1.36814e+17
1.35686e+17
1.34437e+17
1.33018e+17
1.31226e+17
1.29182e+17
1.26885e+17
1.24414e+17
1.2186e+17
1.19077e+17
1.16027e+17
1.12981e+17
1.1e+17
1.06601e+17
1.03176e+17
9.95825e+16
9.56774e+16
9.1535e+16
8.7206e+16
8.2985e+16
7.86564e+16
7.43298e+16
6.98467e+16
6.51678e+16
6.01501e+16
5.54072e+16
5.04463e+16
4.53052e+16
4.02591e+16
3.51384e+16
3.00726e+16
2.45853e+16
1.9167e+16
1.3122e+16
5.61082e+15
5.99483e+15
1.43177e+16
2.08791e+16
2.68513e+16
3.25082e+16
3.82567e+16
4.3801e+16
4.90401e+16
5.40064e+16
5.93022e+16
6.46275e+16
6.98865e+16
7.48948e+16
7.98056e+16
8.4575e+16
8.93524e+16
9.37635e+16
9.80788e+16
1.02483e+17
1.06649e+17
1.1076e+17
1.14453e+17
1.18305e+17
1.21942e+17
1.25172e+17
1.28065e+17
1.30896e+17
1.33132e+17
1.35789e+17
1.38088e+17
1.40134e+17
1.42079e+17
1.43651e+17
1.45155e+17
1.46158e+17
1.47178e+17
1.47891e+17
1.48252e+17
1.48735e+17
1.48726e+17
1.4868e+17
1.48559e+17
1.48016e+17
1.47297e+17
1.46446e+17
1.45226e+17
1.43825e+17
1.42344e+17
1.40885e+17
1.3894e+17
1.36718e+17
1.34412e+17
1.31616e+17
1.2872e+17
1.25811e+17
1.22749e+17
1.195e+17
1.16476e+17
1.12826e+17
1.09105e+17
1.05346e+17
1.01374e+17
9.70567e+16
9.2287e+16
8.79926e+16
8.33752e+16
7.86873e+16
7.38739e+16
6.88919e+16
6.38402e+16
5.8663e+16
5.34723e+16
4.8232e+16
4.27888e+16
3.73146e+16
3.19729e+16
2.61149e+16
2.03127e+16
1.38769e+16
5.9102e+15
6.26632e+15
1.51059e+16
2.21005e+16
2.84111e+16
3.42864e+16
4.02589e+16
4.62952e+16
5.19576e+16
5.73592e+16
6.29286e+16
6.8591e+16
7.40806e+16
7.92326e+16
8.45632e+16
8.97199e+16
9.46551e+16
9.93559e+16
1.03953e+17
1.08681e+17
1.12932e+17
1.17172e+17
1.21256e+17
1.25263e+17
1.29003e+17
1.32351e+17
1.35446e+17
1.38448e+17
1.40981e+17
1.43732e+17
1.46114e+17
1.48129e+17
1.50065e+17
1.51642e+17
1.53161e+17
1.54418e+17
1.55435e+17
1.56153e+17
1.56621e+17
1.57124e+17
1.572e+17
1.57062e+17
1.5673e+17
1.56253e+17
1.55472e+17
1.54454e+17
1.53289e+17
1.51788e+17
1.50086e+17
1.48438e+17
1.46399e+17
1.44178e+17
1.4166e+17
1.38851e+17
1.35795e+17
1.32603e+17
1.29386e+17
1.25932e+17
1.22574e+17
1.18897e+17
1.14993e+17
1.10908e+17
1.0662e+17
1.02183e+17
9.73232e+16
9.26456e+16
8.80041e+16
8.29982e+16
7.79694e+16
7.27485e+16
6.73321e+16
6.21244e+16
5.6567e+16
5.08718e+16
4.52812e+16
3.94888e+16
3.36401e+16
2.76317e+16
2.13574e+16
1.46326e+16
6.25728e+15
6.70886e+15
1.59522e+16
2.3251e+16
2.99982e+16
3.63081e+16
4.25493e+16
4.87465e+16
5.48405e+16
6.05543e+16
6.64329e+16
7.2314e+16
7.80496e+16
8.36706e+16
8.9425e+16
9.48165e+16
9.9925e+16
1.05007e+17
1.09777e+17
1.14843e+17
1.19336e+17
1.23582e+17
1.27862e+17
1.31937e+17
1.35887e+17
1.39384e+17
1.42672e+17
1.45927e+17
1.48657e+17
1.51341e+17
1.53943e+17
1.55921e+17
1.57894e+17
1.59724e+17
1.61083e+17
1.62426e+17
1.63602e+17
1.64429e+17
1.64958e+17
1.65236e+17
1.65364e+17
1.65249e+17
1.64969e+17
1.64268e+17
1.63341e+17
1.62458e+17
1.61191e+17
1.59633e+17
1.57913e+17
1.56031e+17
1.5365e+17
1.51238e+17
1.4863e+17
1.45783e+17
1.42698e+17
1.39494e+17
1.36067e+17
1.32404e+17
1.28592e+17
1.24769e+17
1.20572e+17
1.16348e+17
1.11891e+17
1.07188e+17
1.02488e+17
9.75337e+16
9.25681e+16
8.72509e+16
8.19309e+16
7.65842e+16
7.10301e+16
6.55806e+16
5.95113e+16
5.34205e+16
4.75621e+16
4.1569e+16
3.53777e+16
2.90241e+16
2.24206e+16
1.53443e+16
6.59306e+15
7.10149e+15
1.66643e+16
2.44277e+16
3.15178e+16
3.82845e+16
4.48497e+16
5.11749e+16
5.74444e+16
6.35658e+16
6.99108e+16
7.61688e+16
8.2002e+16
8.8164e+16
9.40865e+16
9.96525e+16
1.05078e+17
1.1051e+17
1.15575e+17
1.20723e+17
1.25537e+17
1.30071e+17
1.34561e+17
1.38768e+17
1.42621e+17
1.4639e+17
1.5005e+17
1.53385e+17
1.56434e+17
1.5908e+17
1.61744e+17
1.63895e+17
1.65885e+17
1.67594e+17
1.69038e+17
1.70484e+17
1.71704e+17
1.72749e+17
1.7325e+17
1.73555e+17
1.73629e+17
1.73448e+17
1.7284e+17
1.72119e+17
1.71092e+17
1.70119e+17
1.68756e+17
1.67145e+17
1.65272e+17
1.63252e+17
1.60749e+17
1.58292e+17
1.55554e+17
1.52776e+17
1.49575e+17
1.46155e+17
1.42492e+17
1.38533e+17
1.34473e+17
1.30463e+17
1.2629e+17
1.21935e+17
1.17042e+17
1.12411e+17
1.07548e+17
1.02277e+17
9.69113e+16
9.15287e+16
8.58605e+16
8.04123e+16
7.47505e+16
6.87484e+16
6.23129e+16
5.60673e+16
4.98557e+16
4.34854e+16
3.69342e+16
3.03113e+16
2.35301e+16
1.60983e+16
6.95329e+15
7.46745e+15
1.74993e+16
2.55947e+16
3.30217e+16
3.99529e+16
4.68751e+16
5.34154e+16
5.99664e+16
6.66941e+16
7.35446e+16
7.98732e+16
8.59883e+16
9.25802e+16
9.88505e+16
1.04728e+17
1.104e+17
1.16039e+17
1.21425e+17
1.26647e+17
1.31696e+17
1.36592e+17
1.41056e+17
1.45466e+17
1.49632e+17
1.53684e+17
1.57365e+17
1.60822e+17
1.63974e+17
1.66833e+17
1.69552e+17
1.71536e+17
1.73601e+17
1.75287e+17
1.76806e+17
1.78345e+17
1.79534e+17
1.80483e+17
1.80976e+17
1.81322e+17
1.81323e+17
1.81057e+17
1.80603e+17
1.79766e+17
1.7872e+17
1.77532e+17
1.76068e+17
1.74544e+17
1.72415e+17
1.70115e+17
1.67582e+17
1.64996e+17
1.6228e+17
1.5916e+17
1.55789e+17
1.52307e+17
1.48499e+17
1.44542e+17
1.40413e+17
1.36237e+17
1.31815e+17
1.27038e+17
1.22156e+17
1.17419e+17
1.12501e+17
1.07002e+17
1.01235e+17
9.56498e+16
8.99583e+16
8.39058e+16
7.79873e+16
7.17735e+16
6.50913e+16
5.87327e+16
5.22964e+16
4.54342e+16
3.85816e+16
3.16032e+16
2.46275e+16
1.68841e+16
7.31298e+15
7.88439e+15
1.84409e+16
2.67373e+16
3.43989e+16
4.15402e+16
4.89726e+16
5.59585e+16
6.27681e+16
7.00668e+16
7.69123e+16
8.33694e+16
9.01035e+16
9.68366e+16
1.03586e+17
1.09801e+17
1.15709e+17
1.21639e+17
1.27181e+17
1.3252e+17
1.37761e+17
1.4266e+17
1.47464e+17
1.52167e+17
1.56838e+17
1.60791e+17
1.64367e+17
1.67872e+17
1.71161e+17
1.74127e+17
1.76846e+17
1.79054e+17
1.81225e+17
1.83049e+17
1.8476e+17
1.86118e+17
1.87258e+17
1.8809e+17
1.88582e+17
1.88689e+17
1.88772e+17
1.88476e+17
1.88006e+17
1.87306e+17
1.86041e+17
1.84852e+17
1.83252e+17
1.81531e+17
1.79294e+17
1.76836e+17
1.7419e+17
1.71506e+17
1.68601e+17
1.65397e+17
1.61804e+17
1.58095e+17
1.54341e+17
1.50191e+17
1.46055e+17
1.41617e+17
1.37124e+17
1.32149e+17
1.27118e+17
1.22091e+17
1.17136e+17
1.11498e+17
1.05635e+17
9.98173e+16
9.37747e+16
8.73683e+16
8.11988e+16
7.47236e+16
6.7837e+16
6.11531e+16
5.4395e+16
4.74359e+16
4.02605e+16
3.31304e+16
2.5697e+16
1.75603e+16
7.63201e+15
8.15112e+15
1.92804e+16
2.80913e+16
3.57719e+16
4.33676e+16
5.11109e+16
5.8377e+16
6.56966e+16
7.30355e+16
8.01733e+16
8.70039e+16
9.41419e+16
1.01261e+17
1.08135e+17
1.14701e+17
1.20997e+17
1.27184e+17
1.32944e+17
1.38541e+17
1.43875e+17
1.48913e+17
1.53912e+17
1.58734e+17
1.63555e+17
1.67606e+17
1.7131e+17
1.74938e+17
1.78309e+17
1.81411e+17
1.84294e+17
1.86694e+17
1.88865e+17
1.90652e+17
1.92305e+17
1.93829e+17
1.94955e+17
1.95662e+17
1.95998e+17
1.9624e+17
1.96162e+17
1.95882e+17
1.95431e+17
1.94531e+17
1.93241e+17
1.9166e+17
1.89817e+17
1.87845e+17
1.8564e+17
1.83285e+17
1.80647e+17
1.77793e+17
1.74536e+17
1.71157e+17
1.67455e+17
1.63582e+17
1.59675e+17
1.55481e+17
1.51281e+17
1.4671e+17
1.42098e+17
1.372e+17
1.31996e+17
1.2669e+17
1.21402e+17
1.15671e+17
1.09643e+17
1.03601e+17
9.73069e+16
9.07884e+16
8.43683e+16
7.77302e+16
7.05162e+16
6.36382e+16
5.64363e+16
4.93703e+16
4.19481e+16
3.45053e+16
2.67496e+16
1.83167e+16
7.97718e+15
8.5442e+15
2.01417e+16
2.91802e+16
3.72452e+16
4.53693e+16
5.32534e+16
6.07974e+16
6.83743e+16
7.57849e+16
8.33516e+16
9.06034e+16
9.80981e+16
1.05552e+17
1.12601e+17
1.19578e+17
1.26254e+17
1.32562e+17
1.38634e+17
1.443e+17
1.49765e+17
1.55155e+17
1.60383e+17
1.65395e+17
1.70138e+17
1.74494e+17
1.78478e+17
1.82023e+17
1.85514e+17
1.8879e+17
1.91723e+17
1.94186e+17
1.96424e+17
1.98541e+17
2.00189e+17
2.01454e+17
2.02534e+17
2.0316e+17
2.03609e+17
2.03629e+17
2.03463e+17
2.0305e+17
2.02438e+17
2.01433e+17
2.00083e+17
1.98228e+17
1.96369e+17
1.94127e+17
1.91915e+17
1.89497e+17
1.86744e+17
1.83601e+17
1.8008e+17
1.76498e+17
1.72768e+17
1.68803e+17
1.64551e+17
1.60185e+17
1.55897e+17
1.51313e+17
1.46551e+17
1.41575e+17
1.36303e+17
1.308e+17
1.25492e+17
1.19466e+17
1.1328e+17
1.06988e+17
1.00649e+17
9.39607e+16
8.73373e+16
8.0384e+16
7.32043e+16
6.6115e+16
5.86746e+16
5.1393e+16
4.35957e+16
3.57486e+16
2.77729e+16
1.91026e+16
8.29126e+15
8.88905e+15
2.08769e+16
3.03868e+16
3.89111e+16
4.71378e+16
5.53491e+16
6.31595e+16
7.09755e+16
7.88316e+16
8.68572e+16
9.44478e+16
1.02329e+17
1.09895e+17
1.17076e+17
1.24297e+17
1.3109e+17
1.37762e+17
1.44028e+17
1.49927e+17
1.5568e+17
1.61419e+17
1.66891e+17
1.72076e+17
1.76842e+17
1.81225e+17
1.85375e+17
1.89175e+17
1.92544e+17
1.95757e+17
1.98753e+17
2.01529e+17
2.03754e+17
2.05844e+17
2.07591e+17
2.08856e+17
2.09777e+17
2.10377e+17
2.10831e+17
2.10838e+17
2.10628e+17
2.09944e+17
2.09065e+17
2.07909e+17
2.06541e+17
2.0467e+17
2.02574e+17
2.00189e+17
1.97804e+17
1.9527e+17
1.92223e+17
1.89068e+17
1.85598e+17
1.81925e+17
1.7795e+17
1.73949e+17
1.69575e+17
1.64832e+17
1.60346e+17
1.55705e+17
1.50705e+17
1.45642e+17
1.4035e+17
1.34672e+17
1.29215e+17
1.23223e+17
1.16913e+17
1.10369e+17
1.038e+17
9.70764e+16
9.00666e+16
8.29605e+16
7.58049e+16
6.844e+16
6.0764e+16
5.33127e+16
4.52146e+16
3.71994e+16
2.89044e+16
1.98004e+16
8.43861e+15
9.18064e+15
2.14701e+16
3.14384e+16
4.02417e+16
4.885e+16
5.74002e+16
6.56622e+16
7.37915e+16
8.19802e+16
9.01764e+16
9.81216e+16
1.06215e+17
1.14006e+17
1.21596e+17
1.29045e+17
1.36149e+17
1.42892e+17
1.49184e+17
1.55542e+17
1.61687e+17
1.6765e+17
1.73189e+17
1.78444e+17
1.83273e+17
1.87707e+17
1.91972e+17
1.95907e+17
1.99425e+17
2.02704e+17
2.05858e+17
2.0854e+17
2.10907e+17
2.13009e+17
2.14728e+17
2.16047e+17
2.16977e+17
2.17422e+17
2.17666e+17
2.17604e+17
2.17251e+17
2.16737e+17
2.15914e+17
2.14664e+17
2.12993e+17
2.11054e+17
2.0875e+17
2.06102e+17
2.03448e+17
2.00586e+17
1.97427e+17
1.94144e+17
1.90575e+17
1.86745e+17
1.82764e+17
1.7854e+17
1.74196e+17
1.69351e+17
1.6455e+17
1.59588e+17
1.54442e+17
1.49228e+17
1.43999e+17
1.38162e+17
1.32414e+17
1.26411e+17
1.20197e+17
1.13572e+17
1.06779e+17
9.9897e+16
9.28029e+16
8.55693e+16
7.81682e+16
7.03491e+16
6.27137e+16
5.491e+16
4.66875e+16
3.85284e+16
2.99208e+16
2.04697e+16
8.71052e+15
9.44551e+15
2.20915e+16
3.23715e+16
4.1664e+16
5.05749e+16
5.93929e+16
6.80211e+16
7.65449e+16
8.49151e+16
9.34545e+16
1.0193e+17
1.10155e+17
1.18174e+17
1.26007e+17
1.33629e+17
1.40875e+17
1.47772e+17
1.54383e+17
1.61182e+17
1.67349e+17
1.7328e+17
1.79117e+17
1.84448e+17
1.89439e+17
1.94157e+17
1.98565e+17
2.02666e+17
2.06307e+17
2.09715e+17
2.12893e+17
2.15766e+17
2.18148e+17
2.20016e+17
2.21611e+17
2.2295e+17
2.23771e+17
2.24428e+17
2.24621e+17
2.24465e+17
2.24006e+17
2.23142e+17
2.22049e+17
2.20572e+17
2.18911e+17
2.16689e+17
2.14246e+17
2.11693e+17
2.08907e+17
2.05834e+17
2.02411e+17
1.98755e+17
1.94972e+17
1.90938e+17
1.86833e+17
1.8263e+17
1.78076e+17
1.73276e+17
1.68275e+17
1.63244e+17
1.5792e+17
1.52525e+17
1.47168e+17
1.41376e+17
1.35442e+17
1.29392e+17
1.23065e+17
1.16464e+17
1.0954e+17
1.02545e+17
9.52316e+16
8.79188e+16
8.05445e+16
7.25423e+16
6.47925e+16
5.66235e+16
4.82582e+16
3.97603e+16
3.08776e+16
2.11162e+16
9.04358e+15
9.71799e+15
2.26728e+16
3.33573e+16
4.30893e+16
5.2259e+16
6.12207e+16
7.02114e+16
7.91148e+16
8.79488e+16
9.65692e+16
1.05322e+17
1.13874e+17
1.22164e+17
1.30325e+17
1.38117e+17
1.45457e+17
1.52661e+17
1.59583e+17
1.6647e+17
1.72994e+17
1.79173e+17
1.8502e+17
1.90592e+17
1.9578e+17
2.0072e+17
2.05059e+17
2.09262e+17
2.12975e+17
2.16402e+17
2.1962e+17
2.2241e+17
2.24762e+17
2.26724e+17
2.28205e+17
2.29307e+17
2.30313e+17
2.3079e+17
2.31013e+17
2.3065e+17
2.3003e+17
2.29061e+17
2.27748e+17
2.26118e+17
2.24244e+17
2.2202e+17
2.19369e+17
2.16426e+17
2.1365e+17
2.10267e+17
2.06792e+17
2.03003e+17
1.99053e+17
1.94733e+17
1.90445e+17
1.8608e+17
1.81531e+17
1.76691e+17
1.71729e+17
1.66591e+17
1.61253e+17
1.55788e+17
1.50191e+17
1.44334e+17
1.38161e+17
1.32001e+17
1.25614e+17
1.18827e+17
1.11816e+17
1.04687e+17
9.74304e+16
9.00367e+16
8.2786e+16
7.47718e+16
6.66752e+16
5.83794e+16
4.9824e+16
4.11031e+16
3.18318e+16
2.16712e+16
9.31642e+15
9.96815e+15
2.33233e+16
3.43121e+16
4.439e+16
5.38282e+16
6.30499e+16
7.24406e+16
8.16944e+16
9.08725e+16
9.98752e+16
1.08923e+17
1.17588e+17
1.26232e+17
1.34408e+17
1.42321e+17
1.50077e+17
1.57491e+17
1.64815e+17
1.7185e+17
1.78649e+17
1.8489e+17
1.90815e+17
1.96634e+17
2.02054e+17
2.0699e+17
2.11657e+17
2.15869e+17
2.19587e+17
2.23132e+17
2.26262e+17
2.29114e+17
2.31423e+17
2.33134e+17
2.34521e+17
2.35604e+17
2.36503e+17
2.36797e+17
2.36723e+17
2.36401e+17
2.35768e+17
2.34508e+17
2.32901e+17
2.3118e+17
2.29144e+17
2.26526e+17
2.23726e+17
2.20671e+17
2.17788e+17
2.14357e+17
2.10596e+17
2.06686e+17
2.02583e+17
1.98231e+17
1.9375e+17
1.89122e+17
1.84485e+17
1.79568e+17
1.7449e+17
1.69317e+17
1.63955e+17
1.58353e+17
1.52686e+17
1.46919e+17
1.40784e+17
1.34456e+17
1.28063e+17
1.21186e+17
1.14006e+17
1.0687e+17
9.96499e+16
9.22888e+16
8.47966e+16
7.68139e+16
6.85166e+16
6.01057e+16
5.11747e+16
4.23004e+16
3.27414e+16
2.23121e+16
9.53181e+15
1.02348e+16
2.4029e+16
3.53614e+16
4.56485e+16
5.53831e+16
6.50044e+16
7.47812e+16
8.4376e+16
9.37478e+16
1.03268e+17
1.12424e+17
1.21263e+17
1.30099e+17
1.38463e+17
1.46619e+17
1.54663e+17
1.62324e+17
1.6985e+17
1.77198e+17
1.84061e+17
1.90506e+17
1.96725e+17
2.02746e+17
2.08293e+17
2.13165e+17
2.17848e+17
2.22182e+17
2.259e+17
2.29398e+17
2.3253e+17
2.35218e+17
2.37468e+17
2.39367e+17
2.40808e+17
2.41952e+17
2.42549e+17
2.42718e+17
2.42421e+17
2.41866e+17
2.40939e+17
2.39431e+17
2.37627e+17
2.35634e+17
2.3323e+17
2.30562e+17
2.27774e+17
2.2474e+17
2.21375e+17
2.17791e+17
2.13875e+17
2.09854e+17
2.0552e+17
2.0114e+17
1.96629e+17
1.91838e+17
1.86853e+17
1.81973e+17
1.76842e+17
1.71553e+17
1.66084e+17
1.60433e+17
1.54845e+17
1.49113e+17
1.42977e+17
1.36639e+17
1.3e+17
1.23038e+17
1.16073e+17
1.08744e+17
1.0148e+17
9.41135e+16
8.67086e+16
7.86967e+16
7.03916e+16
6.17019e+16
5.24878e+16
4.34964e+16
3.38142e+16
2.30599e+16
9.82675e+15
1.04914e+16
2.47651e+16
3.6506e+16
4.69389e+16
5.70799e+16
6.715e+16
7.71463e+16
8.71707e+16
9.67458e+16
1.06405e+17
1.1586e+17
1.25e+17
1.34039e+17
1.42471e+17
1.51019e+17
1.59312e+17
1.67201e+17
1.74982e+17
1.82446e+17
1.89469e+17
1.9621e+17
2.02676e+17
2.08819e+17
2.14216e+17
2.19281e+17
2.24101e+17
2.28427e+17
2.32097e+17
2.35648e+17
2.389e+17
2.41447e+17
2.43691e+17
2.45517e+17
2.46909e+17
2.4784e+17
2.48213e+17
2.47978e+17
2.47354e+17
2.46468e+17
2.45289e+17
2.43857e+17
2.41915e+17
2.39589e+17
2.37013e+17
2.34268e+17
2.31285e+17
2.28068e+17
2.24589e+17
2.2072e+17
2.16694e+17
2.12461e+17
2.08116e+17
2.03533e+17
1.98835e+17
1.94015e+17
1.8894e+17
1.83774e+17
1.78585e+17
1.73254e+17
1.67712e+17
1.62113e+17
1.56394e+17
1.50663e+17
1.44621e+17
1.38185e+17
1.31746e+17
1.24942e+17
1.17821e+17
1.10464e+17
1.03249e+17
9.57263e+16
8.82924e+16
8.03521e+16
7.19031e+16
6.29928e+16
5.3737e+16
4.45605e+16
3.45945e+16
2.36137e+16
1.01005e+16
1.07312e+16
2.54867e+16
3.74491e+16
4.83242e+16
5.87723e+16
6.90283e+16
7.93598e+16
8.97125e+16
9.95712e+16
1.0944e+17
1.19217e+17
1.2881e+17
1.37879e+17
1.46694e+17
1.55514e+17
1.63922e+17
1.72061e+17
1.80021e+17
1.87644e+17
1.9488e+17
2.01726e+17
2.0839e+17
2.14435e+17
2.20074e+17
2.25199e+17
2.30005e+17
2.34438e+17
2.38329e+17
2.41977e+17
2.45055e+17
2.47563e+17
2.49563e+17
2.51229e+17
2.52438e+17
2.52858e+17
2.52968e+17
2.52545e+17
2.51806e+17
2.50681e+17
2.49222e+17
2.47597e+17
2.45432e+17
2.43135e+17
2.40455e+17
2.37463e+17
2.34179e+17
2.30649e+17
2.27097e+17
2.23347e+17
2.19207e+17
2.14866e+17
2.10259e+17
2.0555e+17
2.006e+17
1.95582e+17
1.90389e+17
1.85199e+17
1.79992e+17
1.74618e+17
1.69055e+17
1.63307e+17
1.57397e+17
1.51654e+17
1.4566e+17
1.39316e+17