/*--------------------------------*- C++ -*----------------------------------*\
  =========                 |
  \\      /  F ield         | OpenFOAM: The Open Source CFD Toolbox
   \\    /   O peration     | Website:  https://openfoam.org
    \\  /    A nd           | Version:  6
     \\/     M anipulation  |
\*---------------------------------------------------------------------------*/
FoamFile
{
    version     2.0;
    format      ascii;
    class       volScalarField;
    location    "600";
    object      dnp6;
}
// * * * * * * * * * * * * * * * * * * * * * * * * * * * * * * * * * * * * * //

dimensions      [0 -3 0 0 0 0 0];

internalField   nonuniform List<scalar> 
6400
(
7.28823e+13
1.45065e+14
2.05304e+14
2.63906e+14
3.2361e+14
3.78012e+14
4.24192e+14
4.82685e+14
5.37155e+14
5.85705e+14
6.29351e+14
6.92262e+14
7.35392e+14
7.7503e+14
8.34131e+14
8.81838e+14
9.35097e+14
9.63115e+14
1.0118e+15
1.04355e+15
1.09322e+15
1.124e+15
1.13581e+15
1.1676e+15
1.21321e+15
1.22918e+15
1.26534e+15
1.28569e+15
1.3214e+15
1.34305e+15
1.39284e+15
1.37611e+15
1.40341e+15
1.41214e+15
1.43069e+15
1.42069e+15
1.45306e+15
1.44098e+15
1.44548e+15
1.43753e+15
1.47141e+15
1.44983e+15
1.46028e+15
1.42525e+15
1.41071e+15
1.40248e+15
1.411e+15
1.39336e+15
1.36447e+15
1.37115e+15
1.34009e+15
1.34527e+15
1.29831e+15
1.26743e+15
1.2318e+15
1.20327e+15
1.16914e+15
1.14463e+15
1.10302e+15
1.06326e+15
1.01967e+15
9.82771e+14
9.40825e+14
8.96734e+14
8.65349e+14
8.1656e+14
7.80779e+14
7.18722e+14
6.88134e+14
6.38594e+14
5.88327e+14
5.33797e+14
4.72694e+14
4.27421e+14
3.74088e+14
3.30655e+14
2.67446e+14
2.09743e+14
1.56168e+14
7.42666e+13
1.56095e+14
3.18532e+14
4.63009e+14
6.0151e+14
7.16405e+14
8.39061e+14
9.45093e+14
1.07275e+15
1.20813e+15
1.29115e+15
1.39811e+15
1.51836e+15
1.64664e+15
1.7246e+15
1.85297e+15
1.97583e+15
2.06342e+15
2.15514e+15
2.23264e+15
2.32518e+15
2.39845e+15
2.49713e+15
2.52996e+15
2.6019e+15
2.70224e+15
2.75523e+15
2.82433e+15
2.87948e+15
2.96444e+15
2.97891e+15
3.03934e+15
3.05457e+15
3.13818e+15
3.11863e+15
3.15727e+15
3.17627e+15
3.21169e+15
3.21423e+15
3.22966e+15
3.22716e+15
3.25283e+15
3.25713e+15
3.23753e+15
3.19008e+15
3.1451e+15
3.12453e+15
3.13396e+15
3.07814e+15
3.05861e+15
3.03522e+15
3.00035e+15
2.96132e+15
2.90649e+15
2.82451e+15
2.74359e+15
2.67078e+15
2.59788e+15
2.53464e+15
2.47314e+15
2.36984e+15
2.26955e+15
2.18604e+15
2.08968e+15
1.98232e+15
1.92343e+15
1.83559e+15
1.72478e+15
1.61428e+15
1.50832e+15
1.43065e+15
1.31318e+15
1.18841e+15
1.05393e+15
9.51325e+14
8.38611e+14
7.13484e+14
5.93191e+14
4.62258e+14
3.45605e+14
1.57398e+14
2.22172e+14
4.61516e+14
6.57045e+14
8.57022e+14
1.00944e+15
1.17925e+15
1.34363e+15
1.52002e+15
1.70497e+15
1.83242e+15
1.97712e+15
2.13864e+15
2.31467e+15
2.45384e+15
2.64326e+15
2.79597e+15
2.91327e+15
3.0393e+15
3.1759e+15
3.30857e+15
3.40619e+15
3.54575e+15
3.59258e+15
3.70511e+15
3.83628e+15
3.92544e+15
4.0154e+15
4.13764e+15
4.18916e+15
4.22014e+15
4.30011e+15
4.37237e+15
4.41723e+15
4.45009e+15
4.49216e+15
4.53798e+15
4.5738e+15
4.58202e+15
4.53868e+15
4.55933e+15
4.56672e+15
4.59259e+15
4.57277e+15
4.53474e+15
4.47176e+15
4.42849e+15
4.41677e+15
4.36799e+15
4.32179e+15
4.29365e+15
4.25119e+15
4.17644e+15
4.10999e+15
4.00557e+15
3.89694e+15
3.79901e+15
3.67952e+15
3.61055e+15
3.51e+15
3.37544e+15
3.21737e+15
3.11591e+15
2.97757e+15
2.81566e+15
2.7157e+15
2.59906e+15
2.44474e+15
2.30042e+15
2.13618e+15
2.0237e+15
1.87243e+15
1.70813e+15
1.51033e+15
1.37769e+15
1.1926e+15
1.01471e+15
8.54884e+14
6.61336e+14
4.76062e+14
2.24484e+14
2.78342e+14
5.86879e+14
8.44041e+14
1.08252e+15
1.29229e+15
1.50332e+15
1.71377e+15
1.92503e+15
2.16402e+15
2.34806e+15
2.52227e+15
2.71866e+15
2.90067e+15
3.13762e+15
3.33065e+15
3.51355e+15
3.67977e+15
3.83816e+15
4.02259e+15
4.16683e+15
4.34031e+15
4.47278e+15
4.56615e+15
4.72234e+15
4.86034e+15
4.99156e+15
5.03868e+15
5.16992e+15
5.27067e+15
5.33452e+15
5.45034e+15
5.50577e+15
5.55087e+15
5.62715e+15
5.66805e+15
5.72371e+15
5.77609e+15
5.79846e+15
5.7667e+15
5.77595e+15
5.7951e+15
5.81167e+15
5.76923e+15
5.68809e+15
5.64779e+15
5.59794e+15
5.56237e+15
5.53793e+15
5.4862e+15
5.41659e+15
5.35137e+15
5.26136e+15
5.17684e+15
5.06973e+15
4.9469e+15
4.82481e+15
4.69818e+15
4.55495e+15
4.41337e+15
4.28095e+15
4.09519e+15
3.92623e+15
3.74872e+15
3.58153e+15
3.44776e+15
3.27113e+15
3.10016e+15
2.94039e+15
2.72038e+15
2.54601e+15
2.355e+15
2.14821e+15
1.92893e+15
1.72292e+15
1.50795e+15
1.28172e+15
1.07653e+15
8.41796e+14
5.85036e+14
2.79386e+14
3.34648e+14
7.29065e+14
1.00949e+15
1.29141e+15
1.54172e+15
1.81213e+15
2.06435e+15
2.32212e+15
2.57711e+15
2.82314e+15
3.05487e+15
3.25534e+15
3.48283e+15
3.76933e+15
4.01671e+15
4.21846e+15
4.42665e+15
4.61818e+15
4.78968e+15
4.9953e+15
5.16789e+15
5.34058e+15
5.49369e+15
5.67008e+15
5.84691e+15
5.99355e+15
6.0914e+15
6.21121e+15
6.3177e+15
6.43409e+15
6.4936e+15
6.56612e+15
6.66445e+15
6.69814e+15
6.7883e+15
6.84399e+15
6.91351e+15
6.99428e+15
6.98504e+15
6.99272e+15
6.97837e+15
6.98489e+15
6.93954e+15
6.85559e+15
6.76806e+15
6.77337e+15
6.732e+15
6.65432e+15
6.62542e+15
6.50715e+15
6.42705e+15
6.2784e+15
6.20962e+15
6.15052e+15
5.98863e+15
5.83769e+15
5.68193e+15
5.48519e+15
5.3082e+15
5.16269e+15
4.95903e+15
4.70797e+15
4.50914e+15
4.30593e+15
4.13147e+15
3.93983e+15
3.7499e+15
3.55166e+15
3.27169e+15
3.05649e+15
2.80288e+15
2.54885e+15
2.31832e+15
2.03784e+15
1.77354e+15
1.53369e+15
1.28314e+15
1.01524e+15
6.95851e+14
3.30368e+14
3.934e+14
8.43525e+14
1.19185e+15
1.51657e+15
1.78834e+15
2.09541e+15
2.39625e+15
2.70705e+15
2.99353e+15
3.27868e+15
3.54187e+15
3.7931e+15
4.0753e+15
4.3883e+15
4.65488e+15
4.86515e+15
5.13103e+15
5.3455e+15
5.56005e+15
5.8307e+15
6.0412e+15
6.21989e+15
6.38129e+15
6.58851e+15
6.77912e+15
6.97084e+15
7.10364e+15
7.23409e+15
7.35654e+15
7.48667e+15
7.5363e+15
7.6548e+15
7.77643e+15
7.85028e+15
7.94053e+15
8.01148e+15
8.0952e+15
8.16295e+15
8.17957e+15
8.11702e+15
8.14096e+15
8.13011e+15
8.06615e+15
8.03427e+15
7.96805e+15
7.94646e+15
7.87246e+15
7.78968e+15
7.71305e+15
7.5932e+15
7.48622e+15
7.34974e+15
7.22296e+15
7.10832e+15
6.9579e+15
6.81793e+15
6.63667e+15
6.4004e+15
6.19377e+15
6.03824e+15
5.81816e+15
5.53781e+15
5.30083e+15
5.03009e+15
4.82168e+15
4.60759e+15
4.39786e+15
4.11168e+15
3.81766e+15
3.56184e+15
3.26125e+15
2.96275e+15
2.67477e+15
2.36321e+15
2.05765e+15
1.78828e+15
1.49092e+15
1.18596e+15
8.15855e+14
3.90977e+14
4.43479e+14
9.48323e+14
1.36126e+15
1.72609e+15
2.03646e+15
2.3797e+15
2.72252e+15
3.06829e+15
3.39763e+15
3.73948e+15
4.0311e+15
4.33377e+15
4.66104e+15
4.9685e+15
5.24944e+15
5.54741e+15
5.8045e+15
6.10672e+15
6.39174e+15
6.64951e+15
6.85809e+15
7.08916e+15
7.26377e+15
7.46418e+15
7.69895e+15
7.94475e+15
8.15523e+15
8.26118e+15
8.3555e+15
8.54234e+15
8.64149e+15
8.75317e+15
8.85435e+15
8.9437e+15
9.06463e+15
9.14518e+15
9.26723e+15
9.2797e+15
9.25452e+15
9.27373e+15
9.28698e+15
9.27978e+15
9.23668e+15
9.21036e+15
9.10105e+15
9.05572e+15
9.01996e+15
8.92275e+15
8.79661e+15
8.66068e+15
8.52023e+15
8.40109e+15
8.29843e+15
8.06292e+15
7.9051e+15
7.81193e+15
7.59716e+15
7.32507e+15
7.06154e+15
6.89288e+15
6.64818e+15
6.35551e+15
6.04317e+15
5.75374e+15
5.5083e+15
5.24458e+15
5.04294e+15
4.71994e+15
4.37118e+15
4.07609e+15
3.71267e+15
3.38083e+15
3.04762e+15
2.69725e+15
2.33832e+15
2.02472e+15
1.67461e+15
1.35908e+15
9.56222e+14
4.58381e+14
4.97063e+14
1.07097e+15
1.53782e+15
1.93931e+15
2.30317e+15
2.69045e+15
3.07419e+15
3.42797e+15
3.82549e+15
4.19527e+15
4.52897e+15
4.87216e+15
5.25564e+15
5.56131e+15
5.89279e+15
6.23268e+15
6.55683e+15
6.88263e+15
7.15276e+15
7.44639e+15
7.67709e+15
7.92556e+15
8.18038e+15
8.41111e+15
8.64647e+15
8.88403e+15
9.12754e+15
9.22471e+15
9.47049e+15
9.63237e+15
9.70236e+15
9.82421e+15
9.94409e+15
1.00526e+16
1.01773e+16
1.02386e+16
1.03676e+16
1.04202e+16
1.04422e+16
1.04454e+16
1.04429e+16
1.03979e+16
1.03636e+16
1.03743e+16
1.02175e+16
1.01212e+16
1.01146e+16
9.99122e+15
9.88393e+15
9.70149e+15
9.59202e+15
9.45456e+15
9.22975e+15
9.05193e+15
8.87226e+15
8.72076e+15
8.50668e+15
8.28608e+15
7.98611e+15
7.68826e+15
7.40483e+15
7.10262e+15
6.78623e+15
6.45251e+15
6.19131e+15
5.89479e+15
5.60999e+15
5.28845e+15
4.94149e+15
4.55913e+15
4.18089e+15
3.79946e+15
3.42886e+15
3.01688e+15
2.64543e+15
2.26267e+15
1.87593e+15
1.5219e+15
1.07678e+15
5.09152e+14
5.45788e+14
1.17464e+15
1.7083e+15
2.15306e+15
2.58318e+15
2.96827e+15
3.41063e+15
3.82407e+15
4.22428e+15
4.64255e+15
5.05503e+15
5.3832e+15
5.81265e+15
6.22883e+15
6.59216e+15
6.86546e+15
7.26144e+15
7.6775e+15
7.95059e+15
8.25295e+15
8.54621e+15
8.79227e+15
9.04518e+15
9.36993e+15
9.59354e+15
9.8553e+15
1.01053e+16
1.02496e+16
1.04597e+16
1.06468e+16
1.08144e+16
1.09504e+16
1.11259e+16
1.11998e+16
1.12873e+16
1.13876e+16
1.15068e+16
1.15773e+16
1.16141e+16
1.16075e+16
1.15835e+16
1.15453e+16
1.14677e+16
1.14206e+16
1.13347e+16
1.12131e+16
1.11571e+16
1.10389e+16
1.09656e+16
1.08036e+16
1.06242e+16
1.04344e+16
1.02371e+16
1.00724e+16
9.85713e+15
9.66869e+15
9.42814e+15
9.15023e+15
8.82645e+15
8.53732e+15
8.17806e+15
7.90683e+15
7.56947e+15
7.20413e+15
6.82822e+15
6.51738e+15
6.20506e+15
5.81433e+15
5.43588e+15
5.02956e+15
4.65616e+15
4.24623e+15
3.78634e+15
3.34172e+15
2.93046e+15
2.51809e+15
2.08398e+15
1.66853e+15
1.16875e+15
5.60886e+14
6.04338e+14
1.26957e+15
1.84839e+15
2.34793e+15
2.82583e+15
3.26763e+15
3.73808e+15
4.17418e+15
4.64344e+15
5.11089e+15
5.57978e+15
5.94699e+15
6.33266e+15
6.81978e+15
7.22917e+15
7.60235e+15
8.00536e+15
8.39592e+15
8.74566e+15
9.09343e+15
9.42923e+15
9.67984e+15
9.98135e+15
1.03142e+16
1.06096e+16
1.09042e+16
1.1124e+16
1.1332e+16
1.15558e+16
1.17322e+16
1.19201e+16
1.20734e+16
1.22318e+16
1.23291e+16
1.24649e+16
1.25147e+16
1.26366e+16
1.26702e+16
1.26976e+16
1.27633e+16
1.27626e+16
1.26904e+16
1.26436e+16
1.25467e+16
1.24742e+16
1.23498e+16
1.22773e+16
1.21537e+16
1.20482e+16
1.18872e+16
1.1718e+16
1.15097e+16
1.13068e+16
1.10967e+16
1.08397e+16
1.06465e+16
1.02987e+16
9.97954e+15
9.70732e+15
9.36876e+15
8.99266e+15
8.59859e+15
8.23983e+15
7.88343e+15
7.54329e+15
7.2115e+15
6.79726e+15
6.37416e+15
5.90692e+15
5.51324e+15
5.08967e+15
4.62163e+15
4.09819e+15
3.65226e+15
3.1989e+15
2.75877e+15
2.27889e+15
1.80433e+15
1.28208e+15
6.01565e+14
6.7301e+14
1.38557e+15
1.99799e+15
2.53457e+15
3.03069e+15
3.55189e+15
4.06422e+15
4.53808e+15
5.06517e+15
5.57244e+15
6.11128e+15
6.48263e+15
6.86013e+15
7.37279e+15
7.84218e+15
8.26448e+15
8.70527e+15
9.11187e+15
9.52602e+15
9.94441e+15
1.02848e+16
1.06099e+16
1.087e+16
1.11538e+16
1.15405e+16
1.18635e+16
1.21366e+16
1.23327e+16
1.26062e+16
1.27684e+16
1.29521e+16
1.31091e+16
1.32895e+16
1.34488e+16
1.35887e+16
1.36678e+16
1.37605e+16
1.38451e+16
1.38539e+16
1.39782e+16
1.39115e+16
1.38514e+16
1.38176e+16
1.36836e+16
1.35903e+16
1.34543e+16
1.34146e+16
1.32813e+16
1.31358e+16
1.29828e+16
1.2797e+16
1.25397e+16
1.23102e+16
1.20807e+16
1.1839e+16
1.15516e+16
1.11551e+16
1.08944e+16
1.05595e+16
1.02274e+16
9.85949e+15
9.39914e+15
9.03878e+15
8.62417e+15
8.23804e+15
7.87197e+15
7.38763e+15
6.89558e+15
6.46129e+15
5.97822e+15
5.52016e+15
5.01697e+15
4.47963e+15
3.98732e+15
3.49676e+15
2.99746e+15
2.46218e+15
1.95951e+15
1.3817e+15
6.49059e+14
7.47727e+14
1.51342e+15
2.14356e+15
2.73559e+15
3.29057e+15
3.83334e+15
4.39057e+15
4.90922e+15
5.42401e+15
5.98961e+15
6.54305e+15
7.00955e+15
7.41803e+15
7.94591e+15
8.45459e+15
8.971e+15
9.4532e+15
9.86886e+15
1.03027e+16
1.07181e+16
1.10987e+16
1.15036e+16
1.17485e+16
1.21479e+16
1.25361e+16
1.28335e+16
1.31258e+16
1.33419e+16
1.35715e+16
1.38596e+16
1.4077e+16
1.42732e+16
1.44775e+16
1.4581e+16
1.46772e+16
1.48161e+16
1.49526e+16
1.49598e+16
1.49503e+16
1.50434e+16
1.50356e+16
1.50243e+16
1.49265e+16
1.48114e+16
1.47041e+16
1.46296e+16
1.45098e+16
1.43583e+16
1.42393e+16
1.40492e+16
1.38603e+16
1.36012e+16
1.33472e+16
1.31261e+16
1.28343e+16
1.249e+16
1.21657e+16
1.17839e+16
1.14191e+16
1.11044e+16
1.07331e+16
1.02805e+16
9.84133e+15
9.39282e+15
8.93183e+15
8.46406e+15
7.98626e+15
7.44803e+15
6.96003e+15
6.45995e+15
5.94031e+15
5.44114e+15
4.85131e+15
4.29846e+15
3.76298e+15
3.21742e+15
2.68274e+15
2.112e+15
1.48539e+15
7.03283e+14
7.95173e+14
1.64008e+15
2.31448e+15
2.92613e+15
3.53795e+15
4.13601e+15
4.71815e+15
5.33036e+15
5.82678e+15
6.43111e+15
7.01734e+15
7.55219e+15
8.0656e+15
8.58914e+15
9.07927e+15
9.64393e+15
1.01152e+16
1.05623e+16
1.1035e+16
1.14834e+16
1.19421e+16
1.24157e+16
1.27186e+16
1.31434e+16
1.35732e+16
1.38533e+16
1.41445e+16
1.43936e+16
1.46648e+16
1.4944e+16
1.51581e+16
1.53368e+16
1.55587e+16
1.57688e+16
1.58124e+16
1.59917e+16
1.60365e+16
1.60687e+16
1.6138e+16
1.61639e+16
1.62058e+16
1.61188e+16
1.61104e+16
1.6002e+16
1.59329e+16
1.57943e+16
1.56747e+16
1.5548e+16
1.5378e+16
1.51798e+16
1.49594e+16
1.4687e+16
1.4416e+16
1.41032e+16
1.38063e+16
1.34693e+16
1.31107e+16
1.27217e+16
1.23084e+16
1.19294e+16
1.15438e+16
1.11463e+16
1.06071e+16
1.01525e+16
9.6119e+15
9.10318e+15
8.57305e+15
8.00439e+15
7.52926e+15
6.94246e+15
6.36604e+15
5.82594e+15
5.21776e+15
4.58911e+15
4.03323e+15
3.43076e+15
2.86068e+15
2.25784e+15
1.6001e+15
7.4897e+14
8.40947e+14
1.77041e+15
2.47884e+15
3.13171e+15
3.8058e+15
4.44576e+15
5.04339e+15
5.65894e+15
6.20487e+15
6.8919e+15
7.51524e+15
8.09824e+15
8.69777e+15
9.24104e+15
9.72732e+15
1.02908e+16
1.08907e+16
1.1334e+16
1.18973e+16
1.23455e+16
1.28594e+16
1.32179e+16
1.36403e+16
1.40791e+16
1.45436e+16
1.49102e+16
1.51616e+16
1.54677e+16
1.56857e+16
1.60226e+16
1.62218e+16
1.64858e+16
1.67185e+16
1.68694e+16
1.6935e+16
1.71432e+16
1.72139e+16
1.72676e+16
1.73594e+16
1.7347e+16
1.73877e+16
1.73135e+16
1.72386e+16
1.71105e+16
1.69931e+16
1.68616e+16
1.677e+16
1.66322e+16
1.64847e+16
1.62501e+16
1.60163e+16
1.57537e+16
1.5395e+16
1.51141e+16
1.47718e+16
1.43949e+16
1.40153e+16
1.3667e+16
1.31818e+16
1.27682e+16
1.23614e+16
1.1885e+16
1.13538e+16
1.08253e+16
1.02516e+16
9.70183e+15
9.17658e+15
8.6377e+15
8.07991e+15
7.44864e+15
6.79839e+15
6.23077e+15
5.59643e+15
4.93363e+15
4.28963e+15
3.69784e+15
3.02554e+15
2.394e+15
1.69471e+15
8.05991e+14
8.62215e+14
1.86358e+15
2.6243e+15
3.35821e+15
4.05048e+15
4.74527e+15
5.41527e+15
6.04158e+15
6.63395e+15
7.33194e+15
7.9444e+15
8.62958e+15
9.2887e+15
9.86566e+15
1.04056e+16
1.09925e+16
1.15847e+16
1.2075e+16
1.26239e+16
1.31685e+16
1.3696e+16
1.40765e+16
1.45447e+16
1.50148e+16
1.5493e+16
1.58045e+16
1.61884e+16
1.65314e+16
1.67901e+16
1.71101e+16
1.74001e+16
1.76042e+16
1.78447e+16
1.80148e+16
1.81418e+16
1.82421e+16
1.83751e+16
1.84071e+16
1.85429e+16
1.84848e+16
1.84933e+16
1.84635e+16
1.84051e+16
1.82349e+16
1.81754e+16
1.79969e+16
1.78586e+16
1.77065e+16
1.75651e+16
1.73275e+16
1.70678e+16
1.67612e+16
1.64217e+16
1.60974e+16
1.57259e+16
1.52804e+16
1.48511e+16
1.45089e+16
1.40316e+16
1.35913e+16
1.31315e+16
1.26119e+16
1.20637e+16
1.14619e+16
1.09095e+16
1.03355e+16
9.78074e+15
9.20078e+15
8.59373e+15
7.89498e+15
7.29584e+15
6.64081e+15
5.94831e+15
5.29556e+15
4.62324e+15
3.97415e+15
3.24327e+15
2.56351e+15
1.81288e+15
8.62553e+14
9.06459e+14
1.96958e+15
2.77541e+15
3.53157e+15
4.25443e+15
5.02223e+15
5.75913e+15
6.44528e+15
7.05786e+15
7.74946e+15
8.45641e+15
9.15709e+15
9.80837e+15
1.04592e+16
1.10763e+16
1.17258e+16
1.2281e+16
1.28182e+16
1.34144e+16
1.39496e+16
1.4532e+16
1.49685e+16
1.55067e+16
1.60202e+16
1.6458e+16
1.68116e+16
1.72311e+16
1.74048e+16
1.78272e+16
1.81338e+16
1.83979e+16
1.87e+16
1.88875e+16
1.91459e+16
1.92237e+16
1.93991e+16
1.95006e+16
1.94882e+16
1.96342e+16
1.95779e+16
1.95857e+16
1.96182e+16
1.95326e+16
1.94323e+16
1.93555e+16
1.91703e+16
1.89685e+16
1.87587e+16
1.86432e+16
1.83719e+16
1.80672e+16
1.78075e+16
1.73905e+16
1.69837e+16
1.66051e+16
1.62002e+16
1.57217e+16
1.54112e+16
1.48854e+16
1.4385e+16
1.3912e+16
1.34088e+16
1.28492e+16
1.21328e+16
1.16059e+16
1.09789e+16
1.03598e+16
9.72495e+15
9.06429e+15
8.40283e+15
7.70996e+15
7.03423e+15
6.36006e+15
5.63415e+15
4.90942e+15
4.23459e+15
3.44911e+15
2.71783e+15
1.91525e+15
9.05653e+14
9.40978e+14
2.07663e+15
2.94342e+15
3.74315e+15
4.48068e+15
5.25875e+15
6.07782e+15
6.8266e+15
7.51728e+15
8.24181e+15
8.99525e+15
9.72331e+15
1.03612e+16
1.10776e+16
1.17639e+16
1.24127e+16
1.30177e+16
1.35901e+16
1.4254e+16
1.47735e+16
1.53393e+16
1.58663e+16
1.64155e+16
1.69351e+16
1.73773e+16
1.77688e+16
1.82123e+16
1.84653e+16
1.8892e+16
1.92167e+16
1.94531e+16
1.9745e+16
1.99215e+16
2.01556e+16
2.03277e+16
2.04847e+16
2.05798e+16
2.06078e+16
2.07448e+16
2.07336e+16
2.07237e+16
2.06822e+16
2.06425e+16
2.05383e+16
2.0405e+16
2.02724e+16
2.00612e+16
1.98047e+16
1.96569e+16
1.93723e+16
1.911e+16
1.87785e+16
1.83985e+16
1.79644e+16
1.75145e+16
1.71025e+16
1.66067e+16
1.62077e+16
1.57258e+16
1.52064e+16
1.46635e+16
1.40826e+16
1.35161e+16
1.28116e+16
1.2188e+16
1.16117e+16
1.09371e+16
1.02787e+16
9.58397e+15
8.84162e+15
8.18863e+15
7.46134e+15
6.70249e+15
5.97721e+15
5.20742e+15
4.44026e+15
3.65943e+15
2.84998e+15
2.02016e+15
9.61438e+14
1.01765e+15
2.19779e+15
3.09132e+15
3.95718e+15
4.76613e+15
5.57657e+15
6.38973e+15
7.20746e+15
7.92864e+15
8.69121e+15
9.46076e+15
1.02127e+16
1.0937e+16
1.17292e+16
1.24397e+16
1.30886e+16
1.3771e+16
1.43363e+16
1.5072e+16
1.56386e+16
1.61517e+16
1.67175e+16
1.72508e+16
1.78213e+16
1.82691e+16
1.86847e+16
1.91794e+16
1.9482e+16
1.98469e+16
2.02638e+16
2.04605e+16
2.07457e+16
2.10302e+16
2.11638e+16
2.13649e+16
2.15604e+16
2.16837e+16
2.17545e+16
2.17948e+16
2.18282e+16
2.18221e+16
2.18292e+16
2.17257e+16
2.15704e+16
2.1523e+16
2.13566e+16
2.11511e+16
2.09256e+16
2.07327e+16
2.03519e+16
2.00547e+16
1.97076e+16
1.93332e+16
1.89073e+16
1.84993e+16
1.80475e+16
1.75471e+16
1.70152e+16
1.65363e+16
1.59375e+16
1.53899e+16
1.47953e+16
1.4141e+16
1.3545e+16
1.28748e+16
1.22406e+16
1.15094e+16
1.08011e+16
1.00974e+16
9.35067e+15
8.68479e+15
7.85827e+15
7.02897e+15
6.27165e+15
5.49204e+15
4.67773e+15
3.84435e+15
2.98966e+15
2.11436e+15
1.01404e+15
1.08077e+15
2.28373e+15
3.24825e+15
4.15395e+15
5.03663e+15
5.89309e+15
6.70422e+15
7.51729e+15
8.29523e+15
9.13874e+15
9.98426e+15
1.06989e+16
1.15312e+16
1.23153e+16
1.30302e+16
1.37289e+16
1.44703e+16
1.50914e+16
1.57981e+16
1.64331e+16
1.70047e+16
1.76132e+16
1.81732e+16
1.86506e+16
1.91544e+16
1.96777e+16
2.01361e+16
2.05593e+16
2.08708e+16
2.12997e+16
2.15486e+16
2.18353e+16
2.20547e+16
2.22125e+16
2.24439e+16
2.26218e+16
2.28403e+16
2.28833e+16
2.29487e+16
2.2972e+16
2.29856e+16
2.2879e+16
2.28076e+16
2.26281e+16
2.25766e+16
2.239e+16
2.22058e+16
2.19496e+16
2.17422e+16
2.13393e+16
2.10591e+16
2.06723e+16
2.03657e+16
1.99205e+16
1.94654e+16
1.89694e+16
1.83962e+16
1.78183e+16
1.72982e+16
1.67614e+16
1.62187e+16
1.54719e+16
1.48809e+16
1.42588e+16
1.35356e+16
1.2811e+16
1.21115e+16
1.13224e+16
1.06378e+16
9.90728e+15
9.1162e+15
8.22318e+15
7.38748e+15
6.5715e+15
5.7381e+15
4.87035e+15
4.00609e+15
3.14192e+15
2.2186e+15
1.07239e+15
1.13664e+15
2.40082e+15
3.4026e+15
4.35408e+15
5.23245e+15
6.13956e+15
6.96935e+15
7.81154e+15
8.70018e+15
9.64419e+15
1.04559e+16
1.11974e+16
1.21027e+16
1.29453e+16
1.37104e+16
1.44331e+16
1.51812e+16
1.58766e+16
1.65605e+16
1.72211e+16
1.78942e+16
1.84351e+16
1.9032e+16
1.95764e+16
2.0155e+16
2.06386e+16
2.11195e+16
2.15465e+16
2.19217e+16
2.23711e+16
2.25246e+16
2.28581e+16
2.30457e+16
2.3226e+16
2.34937e+16
2.36641e+16
2.3854e+16
2.39016e+16
2.39991e+16
2.40117e+16
2.39871e+16
2.39715e+16
2.38562e+16
2.37136e+16
2.35986e+16
2.33883e+16
2.32938e+16
2.29653e+16
2.26823e+16
2.23163e+16
2.19938e+16
2.16761e+16
2.12564e+16
2.07902e+16
2.03477e+16
1.98104e+16
1.92685e+16
1.8697e+16
1.81467e+16
1.7569e+16
1.68943e+16
1.62053e+16
1.55926e+16
1.49849e+16
1.42239e+16
1.33978e+16
1.2666e+16
1.19387e+16
1.10992e+16
1.03342e+16
9.5258e+15
8.5943e+15
7.766e+15
6.92871e+15
5.99415e+15
5.08719e+15
4.16406e+15
3.29079e+15
2.33205e+15
1.13074e+15
1.20569e+15
2.54254e+15
3.5495e+15
4.52489e+15
5.41697e+15
6.41646e+15
7.32814e+15
8.18243e+15
9.18376e+15
1.00675e+16
1.08616e+16
1.17472e+16
1.26183e+16
1.35626e+16
1.43783e+16
1.51179e+16
1.59206e+16
1.6623e+16
1.73006e+16
1.80012e+16
1.86159e+16
1.92516e+16
1.98795e+16
2.05906e+16
2.10864e+16
2.1516e+16
2.19954e+16
2.24546e+16
2.28551e+16
2.32749e+16
2.35134e+16
2.38621e+16
2.40761e+16
2.43518e+16
2.45338e+16
2.47224e+16
2.48686e+16
2.49598e+16
2.49519e+16
2.50308e+16
2.49922e+16
2.49774e+16
2.49577e+16
2.47338e+16
2.46714e+16
2.44425e+16
2.42995e+16
2.39706e+16
2.36481e+16
2.32755e+16
2.29612e+16
2.26e+16
2.22057e+16
2.16882e+16
2.11779e+16
2.07078e+16
2.00851e+16
1.95621e+16
1.89215e+16
1.83582e+16
1.76323e+16
1.69341e+16
1.62433e+16
1.56724e+16
1.48859e+16
1.40676e+16
1.32957e+16
1.24922e+16
1.15785e+16
1.07752e+16
9.91927e+15
8.96935e+15
8.0828e+15
7.19526e+15
6.27007e+15
5.30946e+15
4.38612e+15
3.43331e+15
2.41795e+15
1.1794e+15
1.23662e+15
2.65704e+15
3.75445e+15
4.69419e+15
5.66601e+15
6.69948e+15
7.63081e+15
8.58758e+15
9.54065e+15
1.04752e+16
1.13272e+16
1.22627e+16
1.32103e+16
1.41203e+16
1.49873e+16
1.58038e+16
1.66469e+16
1.73785e+16
1.8118e+16
1.88102e+16
1.94273e+16
2.00822e+16
2.0695e+16
2.14402e+16
2.19475e+16
2.24105e+16
2.29199e+16
2.33799e+16
2.38095e+16
2.4259e+16
2.45559e+16
2.48832e+16
2.50852e+16
2.53303e+16
2.5602e+16
2.57951e+16
2.59143e+16
2.59468e+16
2.60322e+16
2.60399e+16
2.60351e+16
2.60645e+16
2.598e+16
2.58291e+16
2.56337e+16
2.53873e+16
2.51496e+16
2.48701e+16
2.45999e+16
2.42673e+16
2.39421e+16
2.34816e+16
2.30685e+16
2.25482e+16
2.20148e+16
2.1518e+16
2.09097e+16
2.03848e+16
1.97182e+16
1.91152e+16
1.84569e+16
1.77199e+16
1.69614e+16
1.62895e+16
1.55139e+16
1.46717e+16
1.38587e+16
1.29944e+16
1.20851e+16
1.12314e+16
1.03631e+16
9.3309e+15
8.42719e+15
7.44391e+15
6.52475e+15
5.538e+15
4.57204e+15
3.57367e+15
2.52456e+15
1.23517e+15
1.30154e+15
2.7816e+15
3.8846e+15
4.8854e+15
5.95527e+15
6.98052e+15
7.94247e+15
8.92079e+15
9.84754e+15
1.08542e+16
1.17677e+16
1.27474e+16
1.37534e+16
1.46653e+16
1.56093e+16
1.65049e+16
1.7319e+16
1.81292e+16
1.88404e+16
1.95282e+16
2.0231e+16
2.09207e+16
2.15908e+16
2.22604e+16
2.28627e+16
2.34132e+16
2.38386e+16
2.43372e+16
2.48119e+16
2.52472e+16
2.55575e+16
2.58752e+16
2.62299e+16
2.64708e+16
2.66443e+16
2.68598e+16
2.69364e+16
2.70682e+16
2.70645e+16
2.70925e+16
2.70688e+16
2.70741e+16
2.69807e+16
2.68701e+16
2.65734e+16
2.64064e+16
2.6058e+16
2.58363e+16
2.55606e+16
2.5231e+16
2.48267e+16
2.43058e+16
2.38391e+16
2.33508e+16
2.28289e+16
2.22285e+16
2.16054e+16
2.10732e+16
2.04359e+16
1.9788e+16
1.91179e+16
1.83907e+16
1.7573e+16
1.69341e+16
1.60547e+16
1.51976e+16
1.43258e+16
1.34821e+16
1.25386e+16
1.16645e+16
1.07113e+16
9.7164e+15
8.78071e+15
7.76276e+15
6.81268e+15
5.75988e+15
4.72017e+15
3.70491e+15
2.64037e+15
1.28521e+15
1.35535e+15
2.87823e+15
4.05509e+15
5.13049e+15
6.17321e+15
7.2498e+15
8.23982e+15
9.24075e+15
1.02587e+16
1.13476e+16
1.22932e+16
1.33448e+16
1.43278e+16
1.52169e+16
1.61866e+16
1.70496e+16
1.79657e+16
1.87954e+16
1.95377e+16
2.02687e+16
2.1049e+16
2.17877e+16
2.25026e+16
2.31523e+16
2.37229e+16
2.43015e+16
2.4825e+16
2.52384e+16
2.56816e+16
2.61089e+16
2.65604e+16
2.68334e+16
2.7184e+16
2.74811e+16
2.76788e+16
2.78423e+16
2.79338e+16
2.80906e+16
2.81003e+16
2.81647e+16
2.80756e+16
2.8025e+16
2.79058e+16
2.78217e+16
2.75697e+16
2.73402e+16
2.70024e+16
2.67537e+16
2.65003e+16
2.60682e+16
2.57046e+16
2.52349e+16
2.47612e+16
2.41903e+16
2.37004e+16
2.31015e+16
2.23563e+16
2.17972e+16
2.1194e+16
2.04669e+16
1.97813e+16
1.90715e+16
1.82148e+16
1.75319e+16
1.6687e+16
1.57901e+16
1.48521e+16
1.39455e+16
1.30276e+16
1.2037e+16
1.10566e+16
1.01072e+16
9.12473e+15
8.05617e+15
7.09405e+15
5.98439e+15
4.93054e+15
3.86871e+15
2.73679e+15
1.29419e+15
1.39885e+15
2.94527e+15
4.18769e+15
5.28102e+15
6.38922e+15
7.51183e+15
8.5861e+15
9.62765e+15
1.06854e+16
1.1749e+16
1.27397e+16
1.38054e+16
1.48162e+16
1.58057e+16
1.67989e+16
1.77382e+16
1.8624e+16
1.93889e+16
2.02463e+16
2.10687e+16
2.18851e+16
2.25939e+16
2.3317e+16
2.3961e+16
2.45202e+16
2.51186e+16
2.56677e+16
2.61327e+16
2.65754e+16
2.70726e+16
2.74437e+16
2.78032e+16
2.81617e+16
2.8451e+16
2.86875e+16
2.88792e+16
2.89422e+16
2.90451e+16
2.9082e+16
2.90881e+16
2.91063e+16
2.9097e+16
2.89995e+16
2.88258e+16
2.86229e+16
2.83505e+16
2.79708e+16
2.76838e+16
2.73428e+16
2.69437e+16
2.65618e+16
2.61058e+16
2.55817e+16
2.5067e+16
2.44739e+16
2.39381e+16
2.31889e+16
2.2532e+16
2.18335e+16
2.10963e+16
2.03588e+16
1.97028e+16
1.88061e+16
1.80174e+16
1.71798e+16
1.63363e+16
1.5381e+16
1.44107e+16
1.3453e+16
1.24624e+16
1.14493e+16
1.04367e+16
9.33259e+15
8.31294e+15
7.28404e+15
6.17024e+15
5.11424e+15
4.00714e+15
2.82895e+15
1.33545e+15
1.43756e+15
3.02666e+15
4.29761e+15
5.47431e+15
6.61603e+15
7.7639e+15
8.88184e+15
9.98671e+15
1.10357e+16
1.21579e+16
1.3273e+16
1.4322e+16
1.53509e+16
1.63554e+16
1.73595e+16
1.83044e+16
1.91987e+16
2.00159e+16
2.09868e+16
2.17341e+16
2.24861e+16
2.33205e+16
2.40258e+16
2.47028e+16
2.53555e+16
2.5979e+16
2.65686e+16
2.70513e+16
2.75366e+16
2.80139e+16
2.84808e+16
2.88544e+16
2.91217e+16
2.93915e+16
2.96728e+16
2.97993e+16
3.00096e+16
3.0091e+16
3.01374e+16
3.01671e+16
3.00994e+16
3.00577e+16
2.99037e+16
2.98172e+16
2.95221e+16
2.92417e+16
2.89645e+16
2.86639e+16
2.8291e+16
2.78568e+16
2.73613e+16
2.68933e+16
2.6326e+16
2.57887e+16
2.52512e+16
2.46082e+16
2.39308e+16
2.31892e+16
2.2505e+16
2.17074e+16
2.09198e+16
2.02211e+16
1.939e+16
1.85405e+16
1.77028e+16
1.68143e+16
1.58926e+16
1.48851e+16
1.39004e+16
1.2829e+16
1.1792e+16
1.07925e+16
9.64628e+15
8.62647e+15
7.51395e+15
6.38873e+15
5.27187e+15
4.13433e+15
2.91941e+15
1.39239e+15
1.47907e+15
3.09751e+15
4.42687e+15
5.66832e+15
6.83589e+15
7.97316e+15
9.13727e+15
1.0291e+16
1.14405e+16
1.2508e+16
1.36406e+16
1.476e+16
1.58198e+16
1.6906e+16
1.79284e+16
1.88419e+16
1.97971e+16
2.06558e+16
2.15905e+16
2.24547e+16
2.32898e+16
2.40661e+16
2.48351e+16
2.553e+16
2.62549e+16
2.67805e+16
2.74179e+16
2.79047e+16
2.83866e+16
2.8898e+16
2.93305e+16
2.9716e+16
3.00688e+16
3.03177e+16
3.04988e+16
3.07844e+16
3.08984e+16
3.10833e+16
3.10725e+16
3.11081e+16
3.10574e+16
3.09759e+16
3.08336e+16
3.06905e+16
3.04757e+16
3.01679e+16
2.97529e+16
2.95656e+16
2.90604e+16
2.86941e+16
2.81765e+16
2.76928e+16
2.70479e+16
2.64907e+16
2.59082e+16
2.53079e+16
2.46143e+16
2.39258e+16
2.3191e+16
2.24131e+16
2.16145e+16
2.08061e+16
1.99599e+16
1.90136e+16
1.81451e+16
1.72455e+16
1.62513e+16
1.5236e+16
1.41941e+16
1.31513e+16
1.20774e+16
1.11346e+16
9.99625e+15
8.88704e+15
7.76556e+15
6.61994e+15
5.47144e+15
4.26608e+15
2.98711e+15
1.43517e+15
1.51441e+15
3.18602e+15
4.54525e+15
5.83042e+15
7.02797e+15
8.19339e+15
9.41696e+15
1.06123e+16
1.1804e+16
1.29436e+16
1.41321e+16
1.52163e+16
1.63574e+16
1.7383e+16
1.83939e+16
1.94269e+16
2.03718e+16
2.13438e+16
2.22621e+16
2.32034e+16
2.40019e+16
2.47628e+16
2.55902e+16
2.6353e+16
2.7028e+16
2.77072e+16
2.83086e+16
2.87921e+16
2.93485e+16
2.98046e+16
3.03058e+16
3.06928e+16
3.09494e+16
3.12089e+16
3.14215e+16
3.17142e+16
3.18156e+16
3.19129e+16
3.19907e+16
3.2078e+16
3.19666e+16
3.1827e+16
3.17238e+16
3.15822e+16
3.12476e+16
3.09534e+16
3.05386e+16
3.035e+16
2.99059e+16
2.94294e+16
2.8942e+16
2.84104e+16
2.78152e+16
2.72013e+16
2.65479e+16
2.5947e+16
2.52417e+16
2.45065e+16
2.37845e+16
2.30103e+16
2.21548e+16
2.13122e+16
2.04997e+16
1.95789e+16
1.8628e+16
1.77482e+16
1.67216e+16
1.56202e+16
1.45861e+16
1.35494e+16
1.24844e+16
1.14334e+16
1.03127e+16
9.15127e+15
8.02831e+15
6.80056e+15
5.6346e+15
4.38131e+15
3.07478e+15
1.46274e+15
1.55344e+15
3.28525e+15
4.68969e+15
5.98722e+15
7.21942e+15
8.44761e+15
9.72732e+15
1.09657e+16
1.2148e+16
1.341e+16
1.45685e+16
1.56608e+16
1.68166e+16
1.78837e+16
1.89174e+16
1.99846e+16
2.09569e+16
2.19313e+16
2.29436e+16
2.38489e+16
2.46863e+16
2.55251e+16
2.63877e+16
2.71922e+16
2.77894e+16
2.84617e+16
2.91228e+16
2.96025e+16
3.0145e+16
3.06362e+16
3.10918e+16
3.14762e+16
3.18619e+16
3.21433e+16
3.24604e+16
3.26467e+16
3.27999e+16
3.28512e+16
3.29227e+16
3.29547e+16
3.28215e+16
3.26758e+16
3.25441e+16
3.22889e+16
3.2004e+16
3.17359e+16
3.14255e+16
3.10364e+16
3.0641e+16
3.01293e+16
2.96568e+16
2.90485e+16
2.84925e+16
2.79035e+16
2.72251e+16
2.64739e+16
2.5855e+16
2.51047e+16
2.43424e+16
2.35382e+16
2.26658e+16
2.18555e+16
2.10336e+16
2.00878e+16
1.9137e+16
1.81122e+16
1.70273e+16
1.60357e+16
1.49034e+16
1.38472e+16
1.27823e+16
1.17675e+16
1.06228e+16
9.4785e+15
8.28764e+15
6.99029e+15
5.81315e+15
4.55584e+15
3.19553e+15
1.51106e+15
1.58953e+15
3.39042e+15
4.85916e+15
6.15265e+15
7.45283e+15
8.76156e+15
1.00403e+16
1.13591e+16
1.25494e+16
1.37788e+16
1.49936e+16
1.61352e+16
1.7336e+16
1.83455e+16
1.94768e+16
2.05766e+16
2.15673e+16
2.25981e+16
2.35969e+16
2.45195e+16
2.5429e+16
2.63053e+16
2.7215e+16
2.78928e+16
2.85965e+16
2.93208e+16
2.99616e+16
3.04196e+16
3.10068e+16
3.15944e+16
3.19825e+16
3.24209e+16
3.27827e+16
3.31114e+16
3.33995e+16
3.35903e+16
3.36526e+16
3.36756e+16
3.36919e+16
3.36648e+16
3.36522e+16
3.34938e+16
3.32885e+16
3.30269e+16
3.27813e+16
3.24768e+16
3.21458e+16
3.17757e+16
3.12759e+16
3.07982e+16
3.02499e+16
2.97262e+16
2.91027e+16
2.84749e+16
2.78365e+16
2.70818e+16
2.63212e+16
2.5585e+16
2.48143e+16
2.39864e+16
2.31689e+16
2.22902e+16
2.14621e+16
2.05443e+16
1.95111e+16
1.85589e+16
1.74962e+16
1.63917e+16
1.52335e+16
1.41856e+16
1.30606e+16
1.20359e+16
1.09181e+16
9.72016e+15
8.4733e+15
7.19134e+15
5.97867e+15
4.66303e+15
3.26931e+15
1.55509e+15
1.62278e+15
3.49645e+15
4.97407e+15
6.3495e+15
7.683e+15
8.97562e+15
1.02984e+16
1.16575e+16
1.2888e+16
1.41445e+16
1.54067e+16
1.66638e+16
1.78002e+16
1.88994e+16
2.00612e+16
2.11388e+16
2.21617e+16
2.3215e+16
2.42318e+16
2.51942e+16
2.60902e+16
2.70618e+16
2.78707e+16
2.8676e+16
2.93777e+16
3.00752e+16
3.07595e+16
3.13175e+16
3.19681e+16
3.24887e+16
3.29197e+16
3.32839e+16
3.36621e+16
3.40225e+16
3.41457e+16
3.43554e+16
3.43968e+16
3.44674e+16
3.44457e+16
3.4378e+16
3.4369e+16
3.41486e+16
3.40379e+16
3.37769e+16
3.35053e+16
3.31503e+16
3.27411e+16
3.23913e+16
3.20008e+16
3.14794e+16
3.09489e+16
3.0325e+16
2.97217e+16
2.90121e+16
2.83323e+16
2.75555e+16
2.68134e+16
2.60664e+16
2.52883e+16
2.44619e+16
2.35715e+16
2.26279e+16
2.18022e+16
2.0883e+16
1.98644e+16