/*--------------------------------*- C++ -*----------------------------------*\
  =========                 |
  \\      /  F ield         | OpenFOAM: The Open Source CFD Toolbox
   \\    /   O peration     | Website:  https://openfoam.org
    \\  /    A nd           | Version:  6
     \\/     M anipulation  |
\*---------------------------------------------------------------------------*/
FoamFile
{
    version     2.0;
    format      ascii;
    class       volScalarField;
    location    "600";
    object      dnp6_s;
}
// * * * * * * * * * * * * * * * * * * * * * * * * * * * * * * * * * * * * * //

dimensions      [0 -3 -1 0 0 0 0];

internalField   nonuniform List<scalar> 
6400
(
9.77117e+13
1.58649e+14
2.14631e+14
2.71676e+14
3.44941e+14
4.01878e+14
4.43467e+14
5.09533e+14
5.59522e+14
6.22021e+14
6.56438e+14
7.41049e+14
7.65956e+14
8.0677e+14
8.7758e+14
9.15376e+14
9.9445e+14
9.98749e+14
1.07481e+15
1.08962e+15
1.17002e+15
1.18879e+15
1.18951e+15
1.22431e+15
1.28457e+15
1.28183e+15
1.33512e+15
1.34508e+15
1.38796e+15
1.41795e+15
1.52001e+15
1.4509e+15
1.48359e+15
1.50622e+15
1.5375e+15
1.48953e+15
1.56348e+15
1.52254e+15
1.53188e+15
1.50239e+15
1.58716e+15
1.51803e+15
1.56964e+15
1.50219e+15
1.49585e+15
1.48522e+15
1.50961e+15
1.4965e+15
1.43164e+15
1.47542e+15
1.40757e+15
1.45972e+15
1.36933e+15
1.34771e+15
1.3076e+15
1.28477e+15
1.24307e+15
1.22767e+15
1.1634e+15
1.12969e+15
1.0822e+15
1.04624e+15
1.00231e+15
9.56194e+14
9.24377e+14
8.54711e+14
8.41479e+14
7.47736e+14
7.45955e+14
6.72573e+14
6.22661e+14
5.66869e+14
4.95728e+14
4.54163e+14
3.90181e+14
3.65265e+14
2.82006e+14
2.22428e+14
1.72283e+14
9.83411e+13
1.48294e+14
2.32282e+14
3.42322e+14
4.48196e+14
5.26565e+14
6.25636e+14
6.88736e+14
7.87331e+14
9.07209e+14
9.38681e+14
1.02433e+15
1.11307e+15
1.23157e+15
1.24838e+15
1.3514e+15
1.46415e+15
1.51665e+15
1.59781e+15
1.62841e+15
1.70956e+15
1.74756e+15
1.85103e+15
1.85249e+15
1.90035e+15
1.99862e+15
2.0209e+15
2.0802e+15
2.08997e+15
2.21368e+15
2.18487e+15
2.24269e+15
2.21158e+15
2.35755e+15
2.26884e+15
2.31853e+15
2.32359e+15
2.36127e+15
2.35748e+15
2.4093e+15
2.38673e+15
2.4198e+15
2.42867e+15
2.40532e+15
2.35698e+15
2.31282e+15
2.29818e+15
2.3402e+15
2.25771e+15
2.26908e+15
2.24318e+15
2.22033e+15
2.19333e+15
2.16296e+15
2.0878e+15
2.0218e+15
1.96421e+15
1.9156e+15
1.85751e+15
1.83695e+15
1.74169e+15
1.6701e+15
1.60603e+15
1.53464e+15
1.44247e+15
1.42697e+15
1.36174e+15
1.26594e+15
1.18281e+15
1.09673e+15
1.06369e+15
9.60517e+14
8.62106e+14
7.56994e+14
6.85067e+14
6.17003e+14
5.15496e+14
4.30669e+14
3.31924e+14
2.77027e+14
1.43884e+14
2.01873e+14
3.27285e+14
4.41196e+14
5.98108e+14
6.75533e+14
7.98885e+14
9.11401e+14
1.03665e+15
1.17391e+15
1.23538e+15
1.33577e+15
1.44722e+15
1.59824e+15
1.65373e+15
1.8294e+15
1.93417e+15
1.99479e+15
2.07967e+15
2.18078e+15
2.29342e+15
2.31582e+15
2.4685e+15
2.44809e+15
2.52772e+15
2.64355e+15
2.69374e+15
2.77337e+15
2.91187e+15
2.9031e+15
2.89616e+15
2.95111e+15
3.04331e+15
3.05445e+15
3.07587e+15
3.10532e+15
3.14767e+15
3.17196e+15
3.18815e+15
3.09447e+15
3.13613e+15
3.11714e+15
3.16714e+15
3.16484e+15
3.1703e+15
3.09677e+15
3.04934e+15
3.05855e+15
3.01053e+15
2.96178e+15
2.96674e+15
2.95357e+15
2.88487e+15
2.85578e+15
2.77024e+15
2.68477e+15
2.62541e+15
2.50493e+15
2.50876e+15
2.44598e+15
2.33856e+15
2.19509e+15
2.1707e+15
2.07445e+15
1.9181e+15
1.86312e+15
1.80522e+15
1.67615e+15
1.57581e+15
1.44514e+15
1.40261e+15
1.29663e+15
1.19131e+15
1.01327e+15
9.72245e+14
8.12913e+14
6.8941e+14
5.9839e+14
4.48689e+14
3.43911e+14
2.03656e+14
2.44979e+14
3.96308e+14
5.78446e+14
7.3741e+14
8.79298e+14
1.01367e+15
1.15684e+15
1.28594e+15
1.48388e+15
1.59527e+15
1.69184e+15
1.84737e+15
1.93356e+15
2.14066e+15
2.24084e+15
2.37236e+15
2.48749e+15
2.5847e+15
2.75409e+15
2.81169e+15
2.98263e+15
3.05559e+15
3.08568e+15
3.21651e+15
3.29325e+15
3.42286e+15
3.36827e+15
3.48552e+15
3.5835e+15
3.59275e+15
3.74062e+15
3.75867e+15
3.74942e+15
3.85626e+15
3.84959e+15
3.89212e+15
3.93729e+15
3.94988e+15
3.90053e+15
3.89826e+15
3.93187e+15
3.96525e+15
3.93694e+15
3.84114e+15
3.8514e+15
3.77933e+15
3.74097e+15
3.77108e+15
3.72517e+15
3.67663e+15
3.63679e+15
3.59064e+15
3.52418e+15
3.42823e+15
3.3532e+15
3.27285e+15
3.20107e+15
3.09079e+15
2.98833e+15
2.92274e+15
2.7771e+15
2.67473e+15
2.54016e+15
2.4324e+15
2.36291e+15
2.21116e+15
2.09331e+15
2.01337e+15
1.84085e+15
1.72587e+15
1.60649e+15
1.46682e+15
1.30573e+15
1.17091e+15
1.03446e+15
8.5753e+14
7.32553e+14
5.70178e+14
4.00795e+14
2.49494e+14
2.88029e+14
5.26739e+14
6.65585e+14
8.6214e+14
1.02684e+15
1.2287e+15
1.38933e+15
1.56152e+15
1.72708e+15
1.90579e+15
2.08027e+15
2.1806e+15
2.31992e+15
2.54679e+15
2.73584e+15
2.86557e+15
3.0057e+15
3.14281e+15
3.21691e+15
3.3707e+15
3.46277e+15
3.60043e+15
3.71515e+15
3.82951e+15
3.96957e+15
4.06894e+15
4.12776e+15
4.20221e+15
4.2611e+15
4.37987e+15
4.38513e+15
4.40764e+15
4.51489e+15
4.46778e+15
4.56562e+15
4.58499e+15
4.62475e+15
4.75028e+15
4.72912e+15
4.77253e+15
4.71549e+15
4.74366e+15
4.73332e+15
4.6478e+15
4.51044e+15
4.57184e+15
4.56804e+15
4.46709e+15
4.51829e+15
4.39315e+15
4.37255e+15
4.19887e+15
4.18555e+15
4.23382e+15
4.08577e+15
3.96472e+15
3.87046e+15
3.71789e+15
3.58478e+15
3.50692e+15
3.37467e+15
3.15524e+15
3.03642e+15
2.90407e+15
2.79253e+15
2.66184e+15
2.53549e+15
2.44572e+15
2.19943e+15
2.07623e+15
1.88798e+15
1.70712e+15
1.58843e+15
1.36084e+15
1.17417e+15
1.02638e+15
8.59762e+14
6.90589e+14
4.70517e+14
2.87194e+14
3.47358e+14
5.91062e+14
8.06736e+14
1.03246e+15
1.18614e+15
1.40276e+15
1.60424e+15
1.83028e+15
2.01347e+15
2.20457e+15
2.38298e+15
2.54279e+15
2.73583e+15
2.97955e+15
3.1693e+15
3.24848e+15
3.48237e+15
3.5902e+15
3.70274e+15
3.94661e+15
4.10793e+15
4.20827e+15
4.29131e+15
4.45429e+15
4.56348e+15
4.71112e+15
4.77691e+15
4.87853e+15
4.97155e+15
5.0734e+15
5.04176e+15
5.14021e+15
5.25919e+15
5.30752e+15
5.35847e+15
5.3972e+15
5.44504e+15
5.52942e+15
5.60701e+15
5.44819e+15
5.49662e+15
5.50181e+15
5.4202e+15
5.43058e+15
5.38856e+15
5.39263e+15
5.30976e+15
5.25017e+15
5.21625e+15
5.13114e+15
5.07194e+15
4.96694e+15
4.83427e+15
4.80334e+15
4.70034e+15
4.60126e+15
4.49965e+15
4.32022e+15
4.17488e+15
4.09773e+15
3.96541e+15
3.74313e+15
3.61719e+15
3.38595e+15
3.25765e+15
3.1236e+15
2.99087e+15
2.76263e+15
2.56953e+15
2.41503e+15
2.20849e+15
1.99757e+15
1.80368e+15
1.5871e+15
1.37591e+15
1.21313e+15
1.00872e+15
8.05401e+14
5.47813e+14
3.43778e+14
3.86357e+14
6.45579e+14
9.16317e+14
1.16403e+15
1.34537e+15
1.58085e+15
1.81161e+15
2.06141e+15
2.26685e+15
2.52808e+15
2.70653e+15
2.91218e+15
3.13979e+15
3.34705e+15
3.50953e+15
3.74836e+15
3.86419e+15
4.10778e+15
4.34199e+15
4.5048e+15
4.61579e+15
4.80869e+15
4.8793e+15
4.97844e+15
5.14642e+15
5.3494e+15
5.55514e+15
5.61536e+15
5.55121e+15
5.74943e+15
5.8392e+15
5.90432e+15
5.95371e+15
5.98909e+15
6.09526e+15
6.13403e+15
6.27999e+15
6.26514e+15
6.17906e+15
6.22899e+15
6.24398e+15
6.27135e+15
6.23345e+15
6.23767e+15
6.13005e+15
6.09652e+15
6.10059e+15
6.05246e+15
5.93625e+15
5.85555e+15
5.7143e+15
5.63535e+15
5.69353e+15
5.41287e+15
5.27953e+15
5.31611e+15
5.17248e+15
4.93583e+15
4.70885e+15
4.68687e+15
4.53866e+15
4.33848e+15
4.08331e+15
3.88609e+15
3.72212e+15
3.51514e+15
3.46906e+15
3.21896e+15
2.93635e+15
2.78916e+15
2.49849e+15
2.28738e+15
2.06103e+15
1.83062e+15
1.55319e+15
1.3687e+15
1.105e+15
9.32781e+14
6.69763e+14
4.13944e+14
4.35221e+14
7.46838e+14
1.04411e+15
1.3041e+15
1.52923e+15
1.81644e+15
2.07524e+15
2.27383e+15
2.58855e+15
2.83457e+15
3.03681e+15
3.2808e+15
3.57629e+15
3.71315e+15
3.94521e+15
4.22078e+15
4.43492e+15
4.64537e+15
4.79621e+15
5.02778e+15
5.14997e+15
5.31635e+15
5.52971e+15
5.65146e+15
5.80353e+15
5.93654e+15
6.17663e+15
6.1367e+15
6.41789e+15
6.54692e+15
6.50868e+15
6.57787e+15
6.64105e+15
6.7184e+15
6.84388e+15
6.81637e+15
6.93802e+15
6.99993e+15
7.03395e+15
7.02842e+15
7.04491e+15
6.98353e+15
6.94641e+15
7.07956e+15
6.89415e+15
6.75183e+15
6.8319e+15
6.7282e+15
6.67885e+15
6.48354e+15
6.45778e+15
6.42255e+15
6.17964e+15
6.0676e+15
5.9346e+15
5.85089e+15
5.71668e+15
5.64593e+15
5.43087e+15
5.1621e+15
4.99663e+15
4.77194e+15
4.5675e+15
4.30854e+15
4.20155e+15
3.98454e+15
3.784e+15
3.6012e+15
3.38644e+15
3.09335e+15
2.82814e+15
2.55692e+15
2.34257e+15
2.02982e+15
1.79951e+15
1.51818e+15
1.24899e+15
1.04715e+15
7.61187e+14
4.47121e+14
4.71769e+14
8.08036e+14
1.17379e+15
1.4498e+15
1.75563e+15
1.96493e+15
2.2977e+15
2.59111e+15
2.82593e+15
3.11497e+15
3.43061e+15
3.57994e+15
3.9239e+15
4.24096e+15
4.502e+15
4.55371e+15
4.85046e+15
5.23226e+15
5.35614e+15
5.54364e+15
5.76661e+15
5.91368e+15
6.02005e+15
6.31915e+15
6.40668e+15
6.57487e+15
6.80055e+15
6.85446e+15
6.96907e+15
7.11091e+15
7.26958e+15
7.32786e+15
7.52185e+15
7.53699e+15
7.53724e+15
7.61643e+15
7.70561e+15
7.79184e+15
7.8473e+15
7.8129e+15
7.77665e+15
7.78325e+15
7.6732e+15
7.64695e+15
7.6288e+15
7.49031e+15
7.45717e+15
7.35226e+15
7.36774e+15
7.27535e+15
7.11838e+15
6.97339e+15
6.82612e+15
6.7579e+15
6.60019e+15
6.47835e+15
6.37238e+15
6.19842e+15
5.92028e+15
5.77777e+15
5.46891e+15
5.38657e+15
5.16302e+15
4.89614e+15
4.55214e+15
4.35301e+15
4.20665e+15
3.91413e+15
3.6977e+15
3.3904e+15
3.17847e+15
2.92144e+15
2.58594e+15
2.26303e+15
1.99105e+15
1.7127e+15
1.40487e+15
1.14437e+15
7.98365e+14
5.01507e+14
5.30534e+14
8.56196e+14
1.24763e+15
1.57697e+15
1.91474e+15
2.18927e+15
2.51691e+15
2.7888e+15
3.12061e+15
3.44e+15
3.78509e+15
4.02218e+15
4.22603e+15
4.61294e+15
4.88406e+15
5.14288e+15
5.40137e+15
5.64932e+15
5.88714e+15
6.11243e+15
6.38397e+15
6.49102e+15
6.70195e+15
6.94927e+15
7.13842e+15
7.36808e+15
7.47877e+15
7.63079e+15
7.78117e+15
7.88209e+15
8.02407e+15
8.11991e+15
8.23278e+15
8.25524e+15
8.4014e+15
8.35214e+15
8.477e+15
8.46758e+15
8.44987e+15
8.52329e+15
8.60578e+15
8.51931e+15
8.50834e+15
8.41702e+15
8.39795e+15
8.27907e+15
8.21783e+15
8.11986e+15
8.07362e+15
7.96153e+15
7.87064e+15
7.73628e+15
7.60168e+15
7.46862e+15
7.23013e+15
7.21392e+15
6.94957e+15
6.6543e+15
6.54328e+15
6.30313e+15
6.03766e+15
5.73992e+15
5.48536e+15
5.26705e+15
5.06869e+15
4.8828e+15
4.5923e+15
4.33921e+15
3.94133e+15
3.74309e+15
3.45998e+15
3.14183e+15
2.73362e+15
2.46759e+15
2.15197e+15
1.87752e+15
1.54244e+15
1.21669e+15
9.02429e+14
5.22372e+14
6.00117e+14
9.4087e+14
1.35269e+15
1.69764e+15
1.99894e+15
2.38331e+15
2.73716e+15
3.03222e+15
3.4315e+15
3.7529e+15
4.19674e+15
4.38156e+15
4.56837e+15
4.94403e+15
5.27754e+15
5.53175e+15
5.83624e+15
6.09448e+15
6.38213e+15
6.72034e+15
6.92933e+15
7.17855e+15
7.31029e+15
7.36609e+15
7.6815e+15
7.93484e+15
8.17096e+15
8.23384e+15
8.49776e+15
8.54207e+15
8.64799e+15
8.71224e+15
8.82646e+15
8.98053e+15
9.11974e+15
9.14885e+15
9.16506e+15
9.31165e+15
9.23363e+15
9.44606e+15
9.371e+15
9.27647e+15
9.33354e+15
9.1966e+15
9.13459e+15
8.9354e+15
8.9845e+15
8.9106e+15
8.77566e+15
8.7002e+15
8.60597e+15
8.39421e+15
8.22317e+15
8.05047e+15
7.93275e+15
7.7898e+15
7.38972e+15
7.31529e+15
7.07689e+15
6.85295e+15
6.64275e+15
6.25126e+15
6.06833e+15
5.76729e+15
5.52079e+15
5.35775e+15
4.9893e+15
4.63219e+15
4.39832e+15
4.03105e+15
3.75449e+15
3.39808e+15
3.03216e+15
2.71499e+15
2.38767e+15
2.04885e+15
1.64171e+15
1.33943e+15
9.61522e+14
5.63559e+14
6.87144e+14
1.04017e+15
1.42939e+15
1.84197e+15
2.21227e+15
2.55847e+15
2.95644e+15
3.28419e+15
3.61092e+15
4.01293e+15
4.39947e+15
4.73688e+15
4.93525e+15
5.30878e+15
5.65597e+15
6.03567e+15
6.39348e+15
6.63979e+15
6.92157e+15
7.18762e+15
7.41074e+15
7.76952e+15
7.81387e+15
8.10919e+15
8.38956e+15
8.57186e+15
8.80516e+15
8.93224e+15
8.98989e+15
9.26327e+15
9.43199e+15
9.56504e+15
9.75501e+15
9.76826e+15
9.7802e+15
9.85555e+15
1.00749e+16
1.00616e+16
9.92368e+15
1.00264e+16
1.00347e+16
1.01234e+16
1.00092e+16
9.91369e+15
9.77083e+15
9.77617e+15
9.67936e+15
9.52292e+15
9.4989e+15
9.35746e+15
9.27264e+15
9.09558e+15
8.88445e+15
8.80788e+15
8.62417e+15
8.34914e+15
8.18551e+15
7.87656e+15
7.60721e+15
7.45072e+15
7.23809e+15
6.88881e+15
6.61863e+15
6.30614e+15
6.01068e+15
5.6831e+15
5.40622e+15
5.01483e+15
4.66817e+15
4.37066e+15
4.01497e+15
3.72623e+15
3.28661e+15
2.92465e+15
2.55653e+15
2.18437e+15
1.8431e+15
1.44154e+15
1.02896e+15
6.18905e+14
7.12158e+14
1.13107e+15
1.56356e+15
1.95098e+15
2.36589e+15
2.77714e+15
3.15999e+15
3.64981e+15
3.89878e+15
4.31523e+15
4.71838e+15
5.08708e+15
5.44286e+15
5.78728e+15
6.05814e+15
6.48966e+15
6.75353e+15
7.03914e+15
7.34518e+15
7.63647e+15
7.93979e+15
8.39339e+15
8.51649e+15
8.77187e+15
9.13813e+15
9.28249e+15
9.49007e+15
9.62691e+15
9.81062e+15
9.99506e+15
1.01567e+16
1.0194e+16
1.032e+16
1.06337e+16
1.05487e+16
1.07177e+16
1.07219e+16
1.06967e+16
1.07662e+16
1.07451e+16
1.08659e+16
1.0725e+16
1.08119e+16
1.07254e+16
1.07319e+16
1.05943e+16
1.04767e+16
1.04159e+16
1.02823e+16
1.01646e+16
1.00325e+16
9.82838e+15
9.6931e+15
9.41549e+15
9.24153e+15
9.03953e+15
8.80298e+15
8.5163e+15
8.232e+15
7.9656e+15
7.70843e+15
7.55771e+15
7.11265e+15
6.87445e+15
6.48049e+15
6.15062e+15
5.78141e+15
5.33004e+15
5.103e+15
4.68114e+15
4.29789e+15
3.95643e+15
3.5416e+15
3.07809e+15
2.75788e+15
2.30031e+15
1.95384e+15
1.54305e+15
1.12829e+15
6.45239e+14
7.53539e+14
1.24602e+15
1.67658e+15
2.08307e+15
2.56817e+15
2.99982e+15
3.36796e+15
3.79904e+15
4.11203e+15
4.64552e+15
5.0766e+15
5.43975e+15
5.87962e+15
6.24723e+15
6.50402e+15
6.84335e+15
7.36833e+15
7.56892e+15
8.03276e+15
8.25413e+15
8.68288e+15
8.80487e+15
9.10067e+15
9.34838e+15
9.70431e+15
1.00738e+16
1.01461e+16
1.03958e+16
1.041e+16
1.07142e+16
1.07726e+16
1.09858e+16
1.11877e+16
1.13183e+16
1.12375e+16
1.14622e+16
1.15306e+16
1.15296e+16
1.16283e+16
1.15843e+16
1.16721e+16
1.16217e+16
1.15546e+16
1.14611e+16
1.1319e+16
1.11994e+16
1.11663e+16
1.10731e+16
1.10221e+16
1.08534e+16
1.07009e+16
1.06019e+16
1.02694e+16
1.01129e+16
9.9e+15
9.66073e+15
9.38856e+15
9.21936e+15
8.82695e+15
8.52731e+15
8.30081e+15
8.00302e+15
7.64316e+15
7.31839e+15
6.88823e+15
6.50198e+15
6.16562e+15
5.83371e+15
5.48061e+15
5.06927e+15
4.54853e+15
4.23128e+15
3.81575e+15
3.33692e+15
2.86985e+15
2.52592e+15
2.02353e+15
1.62248e+15
1.17385e+15
7.04593e+14
7.42083e+14
1.29279e+15
1.75704e+15
2.27829e+15
2.72733e+15
3.19825e+15
3.66392e+15
4.06823e+15
4.43551e+15
4.94505e+15
5.27341e+15
5.78417e+15
6.26931e+15
6.6462e+15
6.97756e+15
7.34761e+15
7.7718e+15
8.06231e+15
8.38601e+15
8.78706e+15
9.19398e+15
9.38376e+15
9.66728e+15
9.9526e+15
1.03663e+16
1.04868e+16
1.07908e+16
1.11186e+16
1.12197e+16
1.14028e+16
1.16938e+16
1.17397e+16
1.1933e+16
1.20584e+16
1.21929e+16
1.21372e+16
1.23071e+16
1.22512e+16
1.24537e+16
1.23812e+16
1.23508e+16
1.23314e+16
1.23849e+16
1.21414e+16
1.21552e+16
1.20006e+16
1.18876e+16
1.1775e+16
1.17137e+16
1.15902e+16
1.14462e+16
1.12131e+16
1.10015e+16
1.08217e+16
1.06058e+16
1.02458e+16
9.89039e+15
9.69091e+15
9.37726e+15
9.09795e+15
8.80235e+15
8.43604e+15
8.08138e+15
7.69004e+15
7.30457e+15
6.92419e+15
6.58316e+15
6.21482e+15
5.84633e+15
5.28574e+15
4.97203e+15
4.51452e+15
3.99814e+15
3.60489e+15
3.15158e+15
2.72564e+15
2.19572e+15
1.75901e+15
1.27211e+15
7.57649e+14
7.91034e+14
1.37246e+15
1.86087e+15
2.35773e+15
2.82798e+15
3.38514e+15
3.88818e+15
4.36532e+15
4.71873e+15
5.16549e+15
5.66582e+15
6.1366e+15
6.54512e+15
7.00022e+15
7.40278e+15
7.89243e+15
8.21603e+15
8.53804e+15
8.9535e+15
9.25381e+15
9.72818e+15
9.95872e+15
1.03236e+16
1.07096e+16
1.10173e+16
1.1208e+16
1.16368e+16
1.14875e+16
1.18434e+16
1.20703e+16
1.21878e+16
1.24901e+16
1.25377e+16
1.28557e+16
1.28079e+16
1.29574e+16
1.311e+16
1.29401e+16
1.31267e+16
1.30665e+16
1.29933e+16
1.3129e+16
1.30716e+16
1.29796e+16
1.2998e+16
1.28709e+16
1.26982e+16
1.24514e+16
1.24603e+16
1.23284e+16
1.20317e+16
1.19848e+16
1.16748e+16
1.13423e+16
1.11095e+16
1.08795e+16
1.04337e+16
1.03671e+16
9.97594e+15
9.59605e+15
9.31204e+15
9.03924e+15
8.73126e+15
8.11423e+15
7.85099e+15
7.37129e+15
6.96946e+15
6.54333e+15
6.09501e+15
5.70644e+15
5.17889e+15
4.7421e+15
4.34694e+15
3.82097e+15
3.31818e+15
2.92878e+15
2.33056e+15
1.86937e+15
1.33698e+15
7.80567e+14
7.94057e+14
1.44221e+15
1.99191e+15
2.52368e+15
2.97491e+15
3.48318e+15
4.09226e+15
4.60151e+15
5.06345e+15
5.53723e+15
6.05702e+15
6.56555e+15
6.90585e+15
7.40244e+15
7.88535e+15
8.31056e+15
8.72083e+15
9.0455e+15
9.56208e+15
9.84459e+15
1.02041e+16
1.05592e+16
1.0913e+16
1.12781e+16
1.15919e+16
1.18087e+16
1.22064e+16
1.22925e+16
1.25814e+16
1.28591e+16
1.29572e+16
1.31911e+16
1.32352e+16
1.33998e+16
1.35551e+16
1.36667e+16
1.3771e+16
1.36838e+16
1.38547e+16
1.38785e+16
1.38539e+16
1.37541e+16
1.37905e+16
1.37597e+16
1.35888e+16
1.35646e+16
1.34539e+16
1.31367e+16
1.30896e+16
1.29456e+16
1.28125e+16
1.26134e+16
1.2387e+16
1.20789e+16
1.16794e+16
1.14429e+16
1.10312e+16
1.08375e+16
1.05334e+16
1.02268e+16
9.85546e+15
9.43495e+15
9.15934e+15
8.56463e+15
8.11486e+15
7.80213e+15
7.35086e+15
6.93671e+15
6.47287e+15
5.91281e+15
5.51928e+15
5.06481e+15
4.54635e+15
4.08593e+15
3.5428e+15
3.01463e+15
2.50663e+15
1.93828e+15
1.41974e+15
8.36767e+14
8.92977e+14
1.5454e+15
2.07056e+15
2.67214e+15
3.20754e+15
3.74688e+15
4.27833e+15
4.87882e+15
5.31965e+15
5.81964e+15
6.3156e+15
6.82195e+15
7.28123e+15
7.86608e+15
8.34996e+15
8.72849e+15
9.25289e+15
9.49604e+15
1.0082e+16
1.04959e+16
1.07372e+16
1.11087e+16
1.13917e+16
1.18531e+16
1.21631e+16
1.23485e+16
1.28024e+16
1.29853e+16
1.30956e+16
1.35525e+16
1.36189e+16
1.37294e+16
1.40859e+16
1.40826e+16
1.41579e+16
1.4341e+16
1.44522e+16
1.45386e+16
1.4496e+16
1.45392e+16
1.44929e+16
1.4617e+16
1.45769e+16
1.43454e+16
1.43616e+16
1.4303e+16
1.41516e+16
1.396e+16
1.39426e+16
1.36434e+16
1.33953e+16
1.31862e+16
1.29101e+16
1.26013e+16
1.23525e+16
1.20843e+16
1.17945e+16
1.13864e+16
1.11296e+16
1.06379e+16
1.02581e+16
9.97172e+15
9.42903e+15
9.07126e+15
8.61558e+15
8.26597e+15
7.7193e+15
7.2688e+15
6.78788e+15
6.23345e+15
5.91203e+15
5.34193e+15
4.73846e+15
4.26123e+15
3.7573e+15
3.20832e+15
2.63372e+15
2.0328e+15
1.47671e+15
8.82627e+14
9.57771e+14
1.56693e+15
2.18819e+15
2.78737e+15
3.40822e+15
3.98916e+15
4.50513e+15
5.03594e+15
5.51841e+15
6.09623e+15
6.73485e+15
7.09916e+15
7.70843e+15
8.21793e+15
8.66638e+15
9.10392e+15
9.66165e+15
1.0026e+16
1.04755e+16
1.09484e+16
1.13036e+16
1.17253e+16
1.21396e+16
1.23527e+16
1.26503e+16
1.30687e+16
1.33543e+16
1.377e+16
1.38325e+16
1.41914e+16
1.43974e+16
1.45836e+16
1.47482e+16
1.47766e+16
1.49095e+16
1.49628e+16
1.52688e+16
1.53079e+16
1.53376e+16
1.53388e+16
1.54511e+16
1.52887e+16
1.5314e+16
1.50535e+16
1.50675e+16
1.4972e+16
1.4834e+16
1.46344e+16
1.46499e+16
1.42885e+16
1.41243e+16
1.37495e+16
1.36663e+16
1.33984e+16
1.30736e+16
1.27957e+16
1.23692e+16
1.18916e+16
1.15204e+16
1.11686e+16
1.09945e+16
1.03477e+16
9.93984e+15
9.545e+15
9.06365e+15
8.59986e+15
8.17561e+15
7.53311e+15
7.18214e+15
6.72345e+15
6.19915e+15
5.563e+15
4.98722e+15
4.4364e+15
3.90951e+15
3.3104e+15
2.7336e+15
2.15247e+15
1.54887e+15
9.40666e+14
1.00029e+15
1.65567e+15
2.29125e+15
2.94457e+15
3.49464e+15
4.12121e+15
4.63646e+15
5.18156e+15
5.7833e+15
6.50897e+15
7.01852e+15
7.40996e+15
8.06382e+15
8.65153e+15
9.17443e+15
9.62021e+15
1.0109e+16
1.05899e+16
1.10039e+16
1.14098e+16
1.19699e+16
1.22252e+16
1.26257e+16
1.29625e+16
1.34167e+16
1.37019e+16
1.40359e+16
1.43389e+16
1.45297e+16
1.50404e+16
1.4995e+16
1.52522e+16
1.53886e+16
1.53713e+16
1.55894e+16
1.56784e+16
1.58923e+16
1.58948e+16
1.60185e+16
1.6043e+16
1.5982e+16
1.60556e+16
1.59637e+16
1.58497e+16
1.57651e+16
1.55113e+16
1.56183e+16
1.54138e+16
1.52391e+16
1.49553e+16
1.46536e+16
1.45219e+16
1.42519e+16
1.39216e+16
1.36961e+16
1.32821e+16
1.29557e+16
1.24898e+16
1.21556e+16
1.17927e+16
1.13627e+16
1.08282e+16
1.04258e+16
1.00533e+16
9.57887e+15
8.94122e+15
8.44764e+15
8.04688e+15
7.46154e+15
6.97286e+15
6.48209e+15
5.79659e+15
5.27923e+15
4.75661e+15
4.06386e+15
3.46729e+15
2.80111e+15
2.2625e+15
1.6463e+15
9.98996e+14
1.08022e+15
1.78543e+15
2.36696e+15
3.05005e+15
3.57715e+15
4.31758e+15
4.9501e+15
5.43368e+15
6.20992e+15
6.75013e+15
7.18762e+15
7.84182e+15
8.32376e+15
9.04113e+15
9.61449e+15
1.00434e+16
1.06241e+16
1.10774e+16
1.14675e+16
1.19685e+16
1.2293e+16
1.27317e+16
1.30557e+16
1.37328e+16
1.40824e+16
1.42656e+16
1.45322e+16
1.48695e+16
1.51061e+16
1.54815e+16
1.56128e+16
1.58852e+16
1.60004e+16
1.6251e+16
1.63054e+16
1.64276e+16
1.65431e+16
1.6728e+16
1.65674e+16
1.66924e+16
1.66453e+16
1.65577e+16
1.6773e+16
1.64642e+16
1.65228e+16
1.63293e+16
1.63645e+16
1.61692e+16
1.59124e+16
1.55542e+16
1.53135e+16
1.51323e+16
1.49638e+16
1.46134e+16
1.41935e+16
1.39658e+16
1.34623e+16
1.31261e+16
1.26474e+16
1.2352e+16
1.17944e+16
1.13031e+16
1.07776e+16
1.05483e+16
1.00233e+16
9.43966e+15
8.93647e+15
8.46098e+15
7.76704e+15
7.26439e+15
6.70627e+15
6.06609e+15
5.46566e+15
4.91021e+15
4.27809e+15
3.6032e+15
3.00483e+15
2.35473e+15
1.68492e+15
1.0416e+15
1.07067e+15
1.84659e+15
2.58095e+15
3.13022e+15
3.77666e+15
4.51459e+15
5.09601e+15
5.77005e+15
6.35811e+15
7.00226e+15
7.52491e+15
8.13927e+15
8.79381e+15
9.35265e+15
9.94624e+15
1.04838e+16
1.1088e+16
1.15571e+16
1.20723e+16
1.25383e+16
1.28926e+16
1.33138e+16
1.35634e+16
1.41788e+16
1.45926e+16
1.48461e+16
1.51778e+16
1.5479e+16
1.57203e+16
1.61245e+16
1.63484e+16
1.66145e+16
1.66937e+16
1.67301e+16
1.6985e+16
1.71839e+16
1.73471e+16
1.72589e+16
1.73754e+16
1.73552e+16
1.72829e+16
1.73757e+16
1.7396e+16
1.73349e+16
1.72437e+16
1.70046e+16
1.68672e+16
1.6621e+16
1.64564e+16
1.62092e+16
1.61156e+16
1.58077e+16
1.55907e+16
1.52327e+16
1.47851e+16
1.4556e+16
1.40832e+16
1.3773e+16
1.32554e+16
1.28615e+16
1.24548e+16
1.19433e+16
1.13885e+16
1.09281e+16
1.0501e+16
9.90306e+15
9.39181e+15
8.78929e+15
8.15135e+15
7.57567e+15
7.08723e+15
6.28115e+15
5.71697e+15
5.01493e+15
4.43272e+15
3.76587e+15
3.13918e+15
2.45166e+15
1.76613e+15
1.09939e+15
1.14714e+15
1.95546e+15
2.61367e+15
3.24612e+15
4.02977e+15
4.69601e+15
5.31286e+15
5.96944e+15
6.49757e+15
7.21902e+15
7.79174e+15
8.42255e+15
9.13037e+15
9.67165e+15
1.03275e+16
1.09748e+16
1.14597e+16
1.20687e+16
1.25046e+16
1.29036e+16
1.33896e+16
1.38379e+16
1.4274e+16
1.46621e+16
1.51388e+16
1.56443e+16
1.58009e+16
1.60881e+16
1.64251e+16
1.67976e+16
1.70091e+16
1.71155e+16
1.74806e+16
1.77157e+16
1.77114e+16
1.7947e+16
1.79451e+16
1.81316e+16
1.80835e+16
1.80773e+16
1.80159e+16
1.80675e+16
1.80435e+16
1.81403e+16
1.78149e+16
1.7809e+16
1.74676e+16
1.72602e+16
1.70972e+16
1.69927e+16
1.67997e+16
1.63646e+16
1.59854e+16
1.57022e+16
1.5363e+16
1.49606e+16
1.45076e+16
1.41724e+16
1.3715e+16
1.33156e+16
1.28803e+16
1.24094e+16
1.17515e+16
1.14319e+16
1.08039e+16
1.02254e+16
9.64219e+15
9.13604e+15
8.42454e+15
7.92601e+15
7.28608e+15
6.54527e+15
5.95992e+15
5.25269e+15
4.64467e+15
3.91703e+15
3.18984e+15
2.52492e+15
1.86839e+15
1.15497e+15
1.19826e+15
2.00979e+15
2.7537e+15
3.4809e+15
4.12323e+15
4.87542e+15
5.50007e+15
6.14553e+15
6.81904e+15
7.62269e+15
8.17416e+15
8.91317e+15
9.54854e+15
1.00385e+16
1.07062e+16
1.11839e+16
1.18555e+16
1.24282e+16
1.29262e+16
1.33628e+16
1.39008e+16
1.43929e+16
1.4901e+16
1.53493e+16
1.56688e+16
1.60628e+16
1.65535e+16
1.67385e+16
1.69539e+16
1.71548e+16
1.76633e+16
1.77752e+16
1.79549e+16
1.82713e+16
1.84551e+16
1.85799e+16
1.85633e+16
1.87587e+16
1.87419e+16
1.88991e+16
1.87859e+16
1.87099e+16
1.85572e+16
1.86575e+16
1.85072e+16
1.84072e+16
1.81103e+16
1.78392e+16
1.78679e+16
1.75302e+16
1.73102e+16
1.69941e+16
1.67494e+16
1.62361e+16
1.59827e+16
1.56645e+16
1.50093e+16
1.46109e+16
1.43477e+16
1.38333e+16
1.33694e+16
1.2911e+16
1.224e+16
1.18946e+16
1.13345e+16
1.06799e+16
1.00142e+16
9.42369e+15
8.83646e+15
8.13573e+15
7.4595e+15
6.85766e+15
6.27421e+15
5.45688e+15
4.89027e+15
4.07806e+15
3.36634e+15
2.66152e+15
1.93628e+15
1.1212e+15
1.24073e+15
2.029e+15
2.84327e+15
3.51808e+15
4.26784e+15
5.03322e+15
5.76796e+15
6.44147e+15
7.13391e+15
7.81411e+15
8.42507e+15
9.12124e+15
9.7701e+15
1.04442e+16
1.10943e+16
1.1754e+16
1.23469e+16
1.27105e+16
1.33296e+16
1.38823e+16
1.44646e+16
1.48881e+16
1.53714e+16
1.58443e+16
1.61557e+16
1.65365e+16
1.69685e+16
1.73189e+16
1.75041e+16
1.79192e+16
1.81394e+16
1.83722e+16
1.86329e+16
1.8867e+16
1.90661e+16
1.93413e+16
1.93252e+16
1.93585e+16
1.94139e+16
1.93293e+16
1.93617e+16
1.94429e+16
1.95006e+16
1.93527e+16
1.93077e+16
1.92375e+16
1.88203e+16
1.85549e+16
1.83761e+16
1.80847e+16
1.79076e+16
1.76693e+16
1.73162e+16
1.69956e+16
1.64838e+16
1.63161e+16
1.57102e+16
1.52776e+16
1.47997e+16
1.43114e+16
1.37449e+16
1.34344e+16
1.27179e+16
1.22088e+16
1.16104e+16
1.10948e+16
1.04043e+16
9.73997e+15
9.09742e+15
8.46661e+15
7.77141e+15
7.08825e+15
6.30308e+15
5.61473e+15
4.96951e+15
4.1773e+15
3.50629e+15
2.75505e+15
2.00098e+15
1.16243e+15
1.27268e+15
2.09517e+15
2.88909e+15
3.67895e+15
4.42799e+15
5.19291e+15
5.92673e+15
6.68113e+15
7.29928e+15
8.04387e+15
8.84849e+15
9.49347e+15
1.01495e+16
1.07805e+16
1.14307e+16
1.20315e+16
1.26385e+16
1.30707e+16
1.38626e+16
1.43104e+16
1.46376e+16
1.52934e+16
1.57641e+16
1.62085e+16
1.66944e+16
1.70917e+16
1.7579e+16
1.79019e+16
1.81924e+16
1.84442e+16
1.88598e+16
1.92364e+16
1.93609e+16
1.94461e+16
1.97836e+16
1.97625e+16
2.00178e+16
2.01197e+16
2.01453e+16
2.0241e+16
2.01352e+16
2.01652e+16
1.99784e+16
2.01104e+16
1.99393e+16
1.96755e+16
1.95319e+16
1.93021e+16
1.91867e+16
1.88988e+16
1.85203e+16
1.82418e+16
1.78836e+16
1.74529e+16
1.71669e+16
1.67429e+16
1.6303e+16
1.5682e+16
1.52708e+16
1.4702e+16
1.40506e+16
1.36996e+16
1.31381e+16
1.26026e+16
1.20434e+16
1.14411e+16
1.08799e+16
1.01614e+16
9.54282e+15
8.74994e+15
8.02893e+15
7.34518e+15
6.48519e+15
5.88107e+15
5.10266e+15
4.33464e+15
3.58173e+15
2.83905e+15
2.07135e+15
1.23044e+15
1.31636e+15
2.12702e+15
2.98388e+15
3.8231e+15
4.58494e+15
5.29268e+15
6.06527e+15
6.8219e+15
7.64069e+15
8.23413e+15
8.95961e+15
9.71833e+15
1.03821e+16
1.11241e+16
1.18189e+16
1.23449e+16
1.30177e+16
1.35428e+16
1.40916e+16
1.47496e+16
1.53496e+16
1.57674e+16
1.63405e+16
1.67592e+16
1.7399e+16
1.76143e+16
1.80943e+16
1.84427e+16
1.86661e+16
1.90227e+16
1.93281e+16
1.95923e+16
1.99608e+16
2.02097e+16
2.0123e+16
2.04644e+16
2.04708e+16
2.0787e+16
2.07717e+16
2.0789e+16
2.08218e+16
2.08116e+16
2.06884e+16
2.06041e+16
2.06443e+16
2.05772e+16
2.00047e+16
2.00402e+16
1.96681e+16
1.94994e+16
1.91343e+16
1.89373e+16
1.84119e+16
1.79781e+16
1.76163e+16
1.72471e+16
1.67715e+16
1.63099e+16
1.58081e+16
1.5245e+16
1.471e+16
1.4191e+16
1.36182e+16
1.28892e+16
1.2328e+16
1.1717e+16
1.10608e+16
1.04134e+16
9.66524e+15
8.9238e+15
8.10433e+15
7.59818e+15
6.7661e+15
6.03562e+15
5.26735e+15
4.52e+15
3.75068e+15
2.93745e+15
2.09612e+15
1.2755e+15
1.34121e+15
2.19645e+15
3.05043e+15
3.91957e+15
4.69809e+15
5.43257e+15
6.26456e+15
7.04147e+15
7.83163e+15
8.57501e+15
9.39477e+15
9.9955e+15
1.08144e+16
1.14022e+16
1.19853e+16
1.27616e+16
1.33093e+16
1.40095e+16
1.45482e+16
1.52616e+16
1.57771e+16
1.61673e+16
1.67274e+16
1.73374e+16
1.7688e+16
1.82636e+16
1.87455e+16
1.89789e+16
1.93949e+16
1.96003e+16
2.00072e+16
2.04409e+16
2.05811e+16
2.07464e+16
2.07573e+16
2.10743e+16
2.12248e+16
2.1212e+16
2.12325e+16
2.15151e+16
2.15719e+16
2.13662e+16
2.12661e+16
2.14501e+16
2.12334e+16
2.1084e+16
2.04774e+16
2.05379e+16
2.04015e+16
2.00727e+16
1.9724e+16
1.9466e+16
1.90244e+16
1.85816e+16
1.80658e+16
1.77976e+16
1.72725e+16
1.67311e+16
1.62492e+16
1.57831e+16
1.51899e+16
1.44996e+16
1.39586e+16
1.3344e+16
1.26193e+16
1.21737e+16
1.15505e+16
1.0641e+16
9.96832e+15
9.25105e+15
8.48592e+15
7.75496e+15
6.99576e+15
6.1611e+15
5.46552e+15
4.618e+15
3.85461e+15
2.9825e+15
2.1572e+15
1.28266e+15
1.37382e+15
2.26945e+15
3.1636e+15
4.01545e+15
4.81356e+15
5.61827e+15
6.48815e+15
7.31597e+15
8.00544e+15
8.9207e+15
9.64137e+15
1.02846e+16
1.1051e+16
1.17315e+16
1.23714e+16
1.31002e+16
1.37137e+16
1.42687e+16
1.5011e+16
1.55949e+16
1.61504e+16
1.668e+16
1.72553e+16
1.79447e+16
1.82573e+16
1.85992e+16
1.92135e+16
1.9492e+16
1.97904e+16
2.01585e+16
2.04574e+16
2.06928e+16
2.1089e+16
2.12488e+16
2.15843e+16
2.17289e+16
2.19591e+16
2.19642e+16
2.19817e+16
2.21979e+16
2.21748e+16
2.19976e+16
2.20205e+16
2.19209e+16
2.16558e+16
2.1469e+16
2.1355e+16
2.10809e+16
2.09728e+16
2.05845e+16
2.03894e+16
1.98959e+16
1.94915e+16
1.91796e+16
1.87652e+16
1.81183e+16
1.77886e+16
1.7293e+16
1.6771e+16
1.62711e+16
1.55333e+16
1.49523e+16
1.44416e+16
1.3758e+16
1.31786e+16
1.24475e+16
1.15952e+16
1.1005e+16
1.02008e+16
9.43117e+15
8.69443e+15
8.02956e+15
7.19932e+15
6.45356e+15
5.68974e+15
4.72837e+15
3.98053e+15
3.15369e+15
2.27129e+15
1.32954e+15
1.39857e+15
2.34302e+15
3.31374e+15
4.10974e+15
4.98489e+15
5.87996e+15
6.66886e+15
7.60692e+15
8.3239e+15
9.06617e+15
9.89379e+15
1.06201e+16
1.14688e+16
1.19822e+16
1.2754e+16
1.35027e+16
1.40978e+16
1.47695e+16
1.54104e+16
1.60029e+16
1.66151e+16
1.71551e+16
1.78935e+16
1.82823e+16
1.87205e+16
1.92317e+16
1.98357e+16
2.00352e+16
2.02921e+16
2.09065e+16
2.11271e+16
2.14217e+16
2.16729e+16
2.19227e+16
2.21858e+16
2.25118e+16
2.26134e+16
2.25865e+16
2.25794e+16
2.2501e+16
2.26663e+16
2.2722e+16
2.2594e+16
2.23781e+16
2.22287e+16
2.20697e+16
2.19011e+16
2.17929e+16
2.14059e+16
2.11116e+16
2.069e+16
2.04348e+16
2.00215e+16
1.96143e+16
1.92825e+16
1.88061e+16
1.82133e+16
1.76643e+16
1.71555e+16
1.6545e+16
1.60187e+16
1.54222e+16
1.48411e+16
1.42593e+16
1.34739e+16
1.28022e+16
1.19933e+16
1.1295e+16
1.0384e+16
9.63661e+15
8.84966e+15
8.20381e+15
7.46576e+15
6.61698e+15
5.77199e+15
4.90177e+15
4.11705e+15
3.21629e+15
2.30469e+15
1.37224e+15
1.41909e+15
2.4407e+15
3.35309e+15
4.2726e+15
5.15055e+15
5.9443e+15
6.80031e+15
7.72677e+15
8.49786e+15
9.28098e+15
1.00847e+16
1.10213e+16
1.16824e+16
1.24046e+16
1.31863e+16
1.38303e+16
1.44792e+16
1.51336e+16
1.57923e+16
1.64735e+16
1.69172e+16
1.76362e+16
1.80839e+16
1.87773e+16
1.92055e+16
1.95889e+16
2.01731e+16
2.05369e+16
2.10265e+16
2.14136e+16
2.18265e+16
2.19771e+16
2.21708e+16
2.26977e+16
2.27087e+16
2.29522e+16
2.3019e+16
2.31192e+16
2.31768e+16
2.29934e+16
2.32162e+16
2.30357e+16
2.30442e+16
2.29903e+16
2.28753e+16
2.27232e+16
2.23533e+16
2.20984e+16
2.20035e+16
2.16677e+16
2.14347e+16
2.09626e+16
2.05969e+16
2.01312e+16
1.97495e+16
1.92071e+16
1.85618e+16
1.80287e+16
1.76042e+16
1.7003e+16
1.64413e+16
1.56575e+16
1.51226e+16
1.46404e+16
1.37596e+16