/*--------------------------------*- C++ -*----------------------------------*\
  =========                 |
  \\      /  F ield         | OpenFOAM: The Open Source CFD Toolbox
   \\    /   O peration     | Website:  https://openfoam.org
    \\  /    A nd           | Version:  6
     \\/     M anipulation  |
\*---------------------------------------------------------------------------*/
FoamFile
{
    version     2.0;
    format      ascii;
    class       volScalarField;
    location    "600";
    object      dnp7;
}
// * * * * * * * * * * * * * * * * * * * * * * * * * * * * * * * * * * * * * //

dimensions      [0 -3 0 0 0 0 0];

internalField   nonuniform List<scalar> 
6400
(
3.74766e+13
6.8246e+13
9.47457e+13
1.21349e+14
1.50346e+14
1.75741e+14
1.95968e+14
2.23918e+14
2.48885e+14
2.7246e+14
2.91598e+14
3.23492e+14
3.41264e+14
3.58554e+14
3.87417e+14
4.08557e+14
4.36005e+14
4.45811e+14
4.7097e+14
4.83512e+14
5.09846e+14
5.22671e+14
5.25413e+14
5.39973e+14
5.62996e+14
5.67239e+14
5.85781e+14
5.93168e+14
6.11347e+14
6.22026e+14
6.51746e+14
6.36187e+14
6.50349e+14
6.54865e+14
6.64943e+14
6.55102e+14
6.75308e+14
6.65854e+14
6.68646e+14
6.62058e+14
6.84361e+14
6.68633e+14
6.78365e+14
6.57754e+14
6.51614e+14
6.47763e+14
6.54622e+14
6.46197e+14
6.28648e+14
6.36354e+14
6.17838e+14
6.26335e+14
5.9941e+14
5.85953e+14
5.69076e+14
5.56825e+14
5.40455e+14
5.30428e+14
5.08979e+14
4.9126e+14
4.71008e+14
4.54558e+14
4.35307e+14
4.14786e+14
4.01039e+14
3.7628e+14
3.6259e+14
3.30328e+14
3.20144e+14
2.95192e+14
2.72023e+14
2.46905e+14
2.17597e+14
1.97762e+14
1.72586e+14
1.55225e+14
1.23927e+14
9.74117e+13
7.4488e+13
3.80127e+13
7.16516e+13
1.31197e+14
1.89525e+14
2.47042e+14
2.92551e+14
3.43876e+14
3.84407e+14
4.37815e+14
4.96909e+14
5.25593e+14
5.70078e+14
6.20426e+14
6.76762e+14
7.00809e+14
7.55801e+14
8.09703e+14
8.43533e+14
8.82012e+14
9.09853e+14
9.49224e+14
9.76531e+14
1.0224e+15
1.02983e+15
1.05831e+15
1.10413e+15
1.12239e+15
1.1521e+15
1.17117e+15
1.21491e+15
1.21385e+15
1.24136e+15
1.24097e+15
1.28806e+15
1.26808e+15
1.28689e+15
1.29275e+15
1.3101e+15
1.31012e+15
1.3215e+15
1.31744e+15
1.3312e+15
1.33393e+15
1.32541e+15
1.30302e+15
1.2818e+15
1.27339e+15
1.28367e+15
1.25388e+15
1.24885e+15
1.23958e+15
1.22567e+15
1.21099e+15
1.1895e+15
1.15304e+15
1.11831e+15
1.08814e+15
1.05835e+15
1.03255e+15
1.01135e+15
9.65841e+14
9.2432e+14
8.91193e+14
8.51655e+14
8.04911e+14
7.86385e+14
7.50839e+14
7.03147e+14
6.56973e+14
6.13066e+14
5.8617e+14
5.35765e+14
4.8356e+14
4.26411e+14
3.86665e+14
3.42455e+14
2.90174e+14
2.41607e+14
1.87942e+14
1.47014e+14
7.14626e+13
9.91329e+13
1.8494e+14
2.57468e+14
3.39144e+14
3.93987e+14
4.61313e+14
5.25342e+14
5.95621e+14
6.71546e+14
7.15956e+14
7.72213e+14
8.36597e+14
9.10276e+14
9.58375e+14
1.0402e+15
1.10076e+15
1.14259e+15
1.19131e+15
1.24651e+15
1.30112e+15
1.333e+15
1.39689e+15
1.40413e+15
1.44886e+15
1.50527e+15
1.53882e+15
1.57607e+15
1.63338e+15
1.64731e+15
1.65237e+15
1.68608e+15
1.72005e+15
1.73537e+15
1.74691e+15
1.76326e+15
1.78294e+15
1.79776e+15
1.80145e+15
1.77324e+15
1.78494e+15
1.7855e+15
1.80262e+15
1.79738e+15
1.78582e+15
1.75536e+15
1.73451e+15
1.73341e+15
1.71148e+15
1.69116e+15
1.68467e+15
1.67113e+15
1.63941e+15
1.61589e+15
1.57152e+15
1.52665e+15
1.48898e+15
1.43657e+15
1.41831e+15
1.38075e+15
1.32505e+15
1.25686e+15
1.22523e+15
1.17034e+15
1.09886e+15
1.06364e+15
1.02125e+15
9.56648e+14
9.00285e+14
8.32667e+14
7.96025e+14
7.37173e+14
6.73698e+14
5.88937e+14
5.45787e+14
4.68534e+14
3.97574e+14
3.38296e+14
2.59856e+14
1.92845e+14
9.99845e+13
1.22148e+14
2.31393e+14
3.29716e+14
4.2245e+14
5.02737e+14
5.83504e+14
6.64789e+14
7.45024e+14
8.4457e+14
9.13157e+14
9.76932e+14
1.05536e+15
1.12005e+15
1.2196e+15
1.29095e+15
1.36242e+15
1.42632e+15
1.48602e+15
1.56386e+15
1.61422e+15
1.68903e+15
1.73858e+15
1.76716e+15
1.83174e+15
1.88411e+15
1.94028e+15
1.94342e+15
2.00062e+15
2.04339e+15
2.06317e+15
2.11921e+15
2.13692e+15
2.14845e+15
2.18517e+15
2.19578e+15
2.21809e+15
2.24054e+15
2.25e+15
2.23054e+15
2.23386e+15
2.24447e+15
2.25691e+15
2.24029e+15
2.20123e+15
2.18856e+15
2.16326e+15
2.14859e+15
2.14603e+15
2.12563e+15
2.09809e+15
2.07477e+15
2.04011e+15
2.00687e+15
1.96304e+15
1.91532e+15
1.86823e+15
1.82093e+15
1.76356e+15
1.70779e+15
1.66079e+15
1.58471e+15
1.5208e+15
1.44994e+15
1.38531e+15
1.33792e+15
1.26458e+15
1.19802e+15
1.14215e+15
1.0515e+15
9.86514e+14
9.14621e+14
8.35006e+14
7.48285e+14
6.70147e+14
5.87787e+14
4.9655e+14
4.19865e+14
3.28446e+14
2.31242e+14
1.23051e+14
1.45915e+14
2.92196e+14
3.89969e+14
4.99523e+14
5.94743e+14
7.0274e+14
7.9877e+14
8.98251e+14
9.96541e+14
1.09359e+15
1.18505e+15
1.25552e+15
1.33991e+15
1.45876e+15
1.5579e+15
1.63318e+15
1.71402e+15
1.78725e+15
1.84617e+15
1.92827e+15
1.9923e+15
2.06185e+15
2.12107e+15
2.18972e+15
2.26139e+15
2.31907e+15
2.35266e+15
2.39868e+15
2.4388e+15
2.48985e+15
2.50593e+15
2.52974e+15
2.57357e+15
2.57543e+15
2.61548e+15
2.63374e+15
2.66204e+15
2.70747e+15
2.70171e+15
2.70775e+15
2.6959e+15
2.70431e+15
2.68841e+15
2.64848e+15
2.60199e+15
2.61453e+15
2.6012e+15
2.56499e+15
2.56595e+15
2.51233e+15
2.48595e+15
2.41548e+15
2.39594e+15
2.3889e+15
2.31892e+15
2.25744e+15
2.19919e+15
2.118e+15
2.04707e+15
1.99638e+15
1.91764e+15
1.81092e+15
1.73674e+15
1.6581e+15
1.59289e+15
1.51855e+15
1.44689e+15
1.37764e+15
1.25924e+15
1.18077e+15
1.08044e+15
9.81394e+14
8.9908e+14
7.84847e+14
6.81661e+14
5.92354e+14
4.97021e+14
3.95915e+14
2.72912e+14
1.44086e+14
1.72392e+14
3.35316e+14
4.63473e+14
5.89301e+14
6.87798e+14
8.08377e+14
9.24575e+14
1.04775e+15
1.1563e+15
1.26671e+15
1.36758e+15
1.46122e+15
1.57046e+15
1.69819e+15
1.80187e+15
1.87231e+15
1.98233e+15
2.05874e+15
2.13626e+15
2.25238e+15
2.33602e+15
2.40171e+15
2.45816e+15
2.54111e+15
2.61271e+15
2.69113e+15
2.73942e+15
2.79123e+15
2.8383e+15
2.89231e+15
2.89904e+15
2.9483e+15
3.00216e+15
3.02806e+15
3.06232e+15
3.08759e+15
3.12214e+15
3.15819e+15
3.17168e+15
3.12826e+15
3.14361e+15
3.14232e+15
3.11141e+15
3.10442e+15
3.07654e+15
3.07226e+15
3.03891e+15
3.00609e+15
2.98029e+15
2.93191e+15
2.89176e+15
2.83458e+15
2.78145e+15
2.74393e+15
2.68422e+15
2.63219e+15
2.56526e+15
2.46765e+15
2.38576e+15
2.33431e+15
2.25215e+15
2.13645e+15
2.04878e+15
1.93526e+15
1.85727e+15
1.77636e+15
1.69942e+15
1.5829e+15
1.46796e+15
1.37451e+15
1.25688e+15
1.14061e+15
1.03117e+15
9.09705e+14
7.91031e+14
6.92575e+14
5.77901e+14
4.62476e+14
3.19795e+14
1.71247e+14
1.93357e+14
3.73451e+14
5.28697e+14
6.68723e+14
7.81786e+14
9.15347e+14
1.04792e+15
1.18373e+15
1.30875e+15
1.44555e+15
1.55389e+15
1.67006e+15
1.79814e+15
1.91561e+15
2.01949e+15
2.1392e+15
2.2297e+15
2.35309e+15
2.46953e+15
2.5691e+15
2.64437e+15
2.73851e+15
2.79608e+15
2.86673e+15
2.95994e+15
3.06439e+15
3.15807e+15
3.19187e+15
3.20975e+15
3.29651e+15
3.33464e+15
3.37557e+15
3.41143e+15
3.44195e+15
3.49358e+15
3.52225e+15
3.58242e+15
3.58317e+15
3.56306e+15
3.57515e+15
3.5836e+15
3.58613e+15
3.56792e+15
3.56401e+15
3.51199e+15
3.49394e+15
3.48732e+15
3.45107e+15
3.39726e+15
3.34331e+15
3.28237e+15
3.23968e+15
3.21659e+15
3.10333e+15
3.03947e+15
3.02292e+15
2.93987e+15
2.82467e+15
2.71424e+15
2.66557e+15
2.57478e+15
2.45883e+15
2.32984e+15
2.21503e+15
2.12176e+15
2.01607e+15
1.95481e+15
1.8244e+15
1.68191e+15
1.57629e+15
1.42818e+15
1.30217e+15
1.17518e+15
1.04047e+15
8.97206e+14
7.81917e+14
6.43606e+14
5.31635e+14
3.80186e+14
2.02794e+14
2.16904e+14
4.24374e+14
5.99237e+14
7.50674e+14
8.86547e+14
1.0394e+15
1.18794e+15
1.31786e+15
1.47808e+15
1.62076e+15
1.74505e+15
1.87808e+15
2.033e+15
2.13905e+15
2.26783e+15
2.40527e+15
2.52937e+15
2.65606e+15
2.75486e+15
2.87335e+15
2.9562e+15
3.05263e+15
3.15532e+15
3.23856e+15
3.32718e+15
3.4182e+15
3.52687e+15
3.54567e+15
3.6601e+15
3.72644e+15
3.73786e+15
3.78171e+15
3.8262e+15
3.86823e+15
3.92171e+15
3.9343e+15
3.99502e+15
4.02096e+15
4.03175e+15
4.03215e+15
4.03405e+15
4.0119e+15
3.99866e+15
4.02385e+15
3.94409e+15
3.89411e+15
3.90816e+15
3.85626e+15
3.8181e+15
3.73519e+15
3.7013e+15
3.65556e+15
3.55287e+15
3.48337e+15
3.41172e+15
3.36061e+15
3.28261e+15
3.20918e+15
3.08664e+15
2.96213e+15
2.85528e+15
2.73669e+15
2.61377e+15
2.47799e+15
2.38676e+15
2.26965e+15
2.16238e+15
2.0435e+15
1.9125e+15
1.75894e+15
1.61098e+15
1.46275e+15
1.32566e+15
1.16116e+15
1.02145e+15
8.71668e+14
7.21795e+14
5.9549e+14
4.29195e+14
2.23771e+14
2.37186e+14
4.63393e+14
6.67718e+14
8.34059e+14
1.00137e+15
1.14084e+15
1.3175e+15
1.47774e+15
1.62678e+15
1.78946e+15
1.95426e+15
2.0678e+15
2.24341e+15
2.41097e+15
2.55186e+15
2.6341e+15
2.7937e+15
2.97226e+15
3.06594e+15
3.18106e+15
3.29823e+15
3.38732e+15
3.47592e+15
3.61424e+15
3.68887e+15
3.79143e+15
3.89891e+15
3.9435e+15
4.02427e+15
4.10113e+15
4.1716e+15
4.21967e+15
4.30017e+15
4.31932e+15
4.34457e+15
4.38365e+15
4.43605e+15
4.47139e+15
4.48973e+15
4.48274e+15
4.47262e+15
4.4601e+15
4.42051e+15
4.40628e+15
4.37513e+15
4.31449e+15
4.29583e+15
4.24686e+15
4.23179e+15
4.16884e+15
4.09363e+15
4.01699e+15
3.93696e+15
3.88043e+15
3.79389e+15
3.72753e+15
3.64319e+15
3.53593e+15
3.40126e+15
3.29561e+15
3.14593e+15
3.05753e+15
2.92676e+15
2.77923e+15
2.61922e+15
2.5027e+15
2.39343e+15
2.23909e+15
2.09773e+15
1.9366e+15
1.80015e+15
1.64548e+15
1.46285e+15
1.28768e+15
1.13118e+15
9.73522e+14
8.04575e+14
6.50851e+14
4.61083e+14
2.47228e+14
2.63847e+14
4.97326e+14
7.18033e+14
9.07978e+14
1.09396e+15
1.25937e+15
1.44291e+15
1.60642e+15
1.78985e+15
1.97159e+15
2.15983e+15
2.29485e+15
2.43385e+15
2.63447e+15
2.7924e+15
2.9334e+15
3.08794e+15
3.23873e+15
3.373e+15
3.50803e+15
3.6452e+15
3.73003e+15
3.8459e+15
3.97889e+15
4.0923e+15
4.21299e+15
4.29379e+15
4.37387e+15
4.4614e+15
4.52649e+15
4.60249e+15
4.65935e+15
4.72295e+15
4.75362e+15
4.81322e+15
4.81778e+15
4.8737e+15
4.88192e+15
4.88749e+15
4.92469e+15
4.93643e+15
4.90085e+15
4.88613e+15
4.84281e+15
4.81775e+15
4.75834e+15
4.73069e+15
4.68067e+15
4.64566e+15
4.58388e+15
4.5222e+15
4.44012e+15
4.36077e+15
4.2802e+15
4.17301e+15
4.11906e+15
3.97327e+15
3.83914e+15
3.74506e+15
3.61174e+15
3.46204e+15
3.3021e+15
3.16256e+15
3.02768e+15
2.90175e+15
2.78302e+15
2.62114e+15
2.46053e+15
2.26761e+15
2.12616e+15
1.96543e+15
1.78379e+15
1.57125e+15
1.40558e+15
1.231e+15
1.0665e+15
8.79842e+14
6.99655e+14
5.09023e+14
2.63077e+14
2.96041e+14
5.44015e+14
7.75612e+14
9.78116e+14
1.16313e+15
1.36873e+15
1.56823e+15
1.7456e+15
1.95621e+15
2.15057e+15
2.37377e+15
2.50264e+15
2.63227e+15
2.83827e+15
3.02287e+15
3.18108e+15
3.3529e+15
3.50716e+15
3.67057e+15
3.84312e+15
3.97285e+15
4.1016e+15
4.18757e+15
4.27594e+15
4.43921e+15
4.57359e+15
4.68693e+15
4.75124e+15
4.86916e+15
4.9199e+15
4.98781e+15
5.04133e+15
5.11378e+15
5.18355e+15
5.24408e+15
5.26766e+15
5.30229e+15
5.34686e+15
5.33655e+15
5.41218e+15
5.37962e+15
5.35025e+15
5.34885e+15
5.28419e+15
5.24378e+15
5.17398e+15
5.17323e+15
5.12118e+15
5.06146e+15
5.00843e+15
4.94137e+15
4.8323e+15
4.73963e+15
4.65111e+15
4.56613e+15
4.4605e+15
4.28402e+15
4.19867e+15
4.06671e+15
3.94011e+15
3.80246e+15
3.60811e+15
3.47901e+15
3.31496e+15
3.17026e+15
3.04386e+15
2.84886e+15
2.65303e+15
2.49364e+15
2.30215e+15
2.13102e+15
1.93492e+15
1.72471e+15
1.53885e+15
1.35139e+15
1.15957e+15
9.46886e+14
7.61732e+14
5.469e+14
2.8378e+14
3.32314e+14
5.96974e+14
8.28542e+14
1.05677e+15
1.26874e+15
1.47498e+15
1.69333e+15
1.88922e+15
2.08294e+15
2.30538e+15
2.52469e+15
2.70528e+15
2.84627e+15
3.05439e+15
3.2527e+15
3.45957e+15
3.65127e+15
3.80483e+15
3.97127e+15
4.13099e+15
4.27505e+15
4.44647e+15
4.51463e+15
4.67282e+15
4.83092e+15
4.9452e+15
5.06526e+15
5.14001e+15
5.21647e+15
5.34322e+15
5.43036e+15
5.50612e+15
5.59429e+15
5.62493e+15
5.65198e+15
5.70903e+15
5.78254e+15
5.77515e+15
5.74967e+15
5.80061e+15
5.80352e+15
5.81214e+15
5.76571e+15
5.71319e+15
5.66068e+15
5.63834e+15
5.58753e+15
5.52187e+15
5.48615e+15
5.41206e+15
5.34689e+15
5.24264e+15
5.13942e+15
5.06614e+15
4.95517e+15
4.81532e+15
4.6953e+15
4.53695e+15
4.3918e+15
4.28101e+15
4.14394e+15
3.96203e+15
3.79448e+15
3.62021e+15
3.44293e+15
3.26136e+15
3.08202e+15
2.8656e+15
2.67726e+15
2.48967e+15
2.28924e+15
2.10537e+15
1.86984e+15
1.65769e+15
1.45201e+15
1.24131e+15
1.04024e+15
8.21015e+14
5.8723e+14
3.08832e+14
3.50761e+14
6.48574e+14
8.97707e+14
1.12676e+15
1.3628e+15
1.59405e+15
1.81737e+15
2.06574e+15
2.23965e+15
2.47596e+15
2.70536e+15
2.91352e+15
3.11155e+15
3.31161e+15
3.4902e+15
3.71831e+15
3.89286e+15
4.06014e+15
4.24177e+15
4.41332e+15
4.59528e+15
4.8018e+15
4.89832e+15
5.06165e+15
5.2448e+15
5.34619e+15
5.45993e+15
5.54908e+15
5.65162e+15
5.76355e+15
5.84583e+15
5.90178e+15
5.99377e+15
6.10019e+15
6.09237e+15
6.17496e+15
6.18683e+15
6.18937e+15
6.21942e+15
6.22791e+15
6.2615e+15
6.21595e+15
6.22869e+15
6.18134e+15
6.15933e+15
6.09515e+15
6.04407e+15
5.99935e+15
5.93302e+15
5.85967e+15
5.77775e+15
5.66977e+15
5.56808e+15
5.43768e+15
5.32904e+15
5.20126e+15
5.06135e+15
4.90565e+15
4.74069e+15
4.59296e+15
4.4493e+15
4.31458e+15
4.09126e+15
3.92679e+15
3.70949e+15
3.51307e+15
3.30485e+15
3.0735e+15
2.90674e+15
2.67511e+15
2.45117e+15
2.24913e+15
2.01217e+15
1.76205e+15
1.55667e+15
1.31819e+15
1.10614e+15
8.77215e+14
6.3542e+14
3.27466e+14
3.70163e+14
7.04445e+14
9.6206e+14
1.20552e+15
1.47007e+15
1.71649e+15
1.94017e+15
2.18026e+15
2.37811e+15
2.65757e+15
2.90019e+15
3.12225e+15
3.36156e+15
3.56962e+15
3.74123e+15
3.9562e+15
4.20826e+15
4.36214e+15
4.59422e+15
4.75557e+15
4.96894e+15
5.08753e+15
5.24903e+15
5.41389e+15
5.61131e+15
5.7702e+15
5.85042e+15
5.97282e+15
6.03363e+15
6.179e+15
6.24379e+15
6.35379e+15
6.4551e+15
6.51662e+15
6.51927e+15
6.61943e+15
6.64751e+15
6.66088e+15
6.70632e+15
6.69564e+15
6.72494e+15
6.69314e+15
6.66226e+15
6.60408e+15
6.54787e+15
6.49061e+15
6.46056e+15
6.40953e+15
6.36308e+15
6.27131e+15
6.18482e+15
6.09285e+15
5.93771e+15
5.83698e+15
5.70738e+15
5.55986e+15
5.40867e+15
5.28472e+15
5.08185e+15
4.9198e+15
4.77266e+15
4.59275e+15
4.3858e+15
4.18479e+15
3.95215e+15
3.73585e+15
3.53669e+15
3.3339e+15
3.1241e+15
2.87754e+15
2.6132e+15
2.40546e+15
2.16106e+15
1.89897e+15
1.64606e+15
1.42795e+15
1.16182e+15
9.26701e+14
6.69561e+14
3.54125e+14
3.74105e+14
7.3777e+14
1.01529e+15
1.29982e+15
1.56347e+15
1.83226e+15
2.09201e+15
2.32967e+15
2.5492e+15
2.82643e+15
3.04925e+15
3.32403e+15
3.58834e+15
3.80857e+15
4.00791e+15
4.23165e+15
4.46749e+15
4.64546e+15
4.85388e+15
5.07131e+15
5.28619e+15
5.41489e+15
5.59094e+15
5.77193e+15
5.97635e+15
6.08454e+15
6.24453e+15
6.38825e+15
6.47139e+15
6.59728e+15
6.72205e+15
6.78812e+15
6.89126e+15
6.96114e+15
7.00951e+15
7.03333e+15
7.09935e+15
7.09762e+15
7.17412e+15
7.1389e+15
7.13954e+15
7.13388e+15
7.12051e+15
7.03011e+15
7.01804e+15
6.93808e+15
6.8805e+15
6.82137e+15
6.78008e+15
6.6948e+15
6.59739e+15
6.47819e+15
6.34755e+15
6.22792e+15
6.08667e+15
5.89898e+15
5.71862e+15
5.59843e+15
5.4109e+15
5.2425e+15
5.06858e+15
4.86669e+15
4.65732e+15
4.42005e+15
4.20474e+15
3.9817e+15
3.77351e+15
3.55374e+15
3.3243e+15
3.03858e+15
2.81965e+15
2.5645e+15
2.28927e+15
2.04384e+15
1.78441e+15
1.5391e+15
1.24984e+15
9.96187e+14
7.18922e+14
3.80099e+14
3.93863e+14
7.80232e+14
1.07351e+15
1.36012e+15
1.6339e+15
1.93733e+15
2.22466e+15
2.49048e+15
2.7133e+15
2.97753e+15
3.25349e+15
3.52608e+15
3.77376e+15
4.02877e+15
4.26557e+15
4.52543e+15
4.73084e+15
4.92914e+15
5.16206e+15
5.36201e+15
5.60327e+15
5.75688e+15
5.96836e+15
6.177e+15
6.35147e+15
6.48186e+15
6.66478e+15
6.68377e+15
6.86441e+15
6.9854e+15
7.08199e+15
7.21499e+15
7.27873e+15
7.40372e+15
7.41461e+15
7.49218e+15
7.54021e+15
7.50609e+15
7.5863e+15
7.5526e+15
7.54832e+15
7.58374e+15
7.54881e+15
7.5062e+15
7.4889e+15
7.41178e+15
7.32128e+15
7.22465e+15
7.20476e+15
7.10448e+15
6.97599e+15
6.89882e+15
6.72587e+15
6.55706e+15
6.41299e+15
6.25874e+15
6.05192e+15
5.9615e+15
5.7475e+15
5.54782e+15
5.3732e+15
5.19099e+15
4.98344e+15
4.67612e+15
4.48682e+15
4.23535e+15
3.99756e+15
3.75218e+15
3.49563e+15
3.24507e+15
2.96857e+15
2.71146e+15
2.46014e+15
2.17414e+15
1.89168e+15
1.64349e+15
1.32958e+15
1.05639e+15
7.58216e+14
3.97211e+14
4.04961e+14
8.21971e+14
1.14176e+15
1.44544e+15
1.71883e+15
2.01675e+15
2.34423e+15
2.63545e+15
2.89822e+15
3.17504e+15
3.46953e+15
3.75316e+15
3.98276e+15
4.26499e+15
4.53504e+15
4.78561e+15
5.01753e+15
5.22745e+15
5.49767e+15
5.68432e+15
5.90227e+15
6.10383e+15
6.31616e+15
6.5247e+15
6.69869e+15
6.84465e+15
7.03541e+15
7.10769e+15
7.28181e+15
7.41762e+15
7.49634e+15
7.61745e+15
7.6731e+15
7.77101e+15
7.84247e+15
7.90789e+15
7.94804e+15
7.94025e+15
8.01417e+15
8.00972e+15
8.0002e+15
7.98069e+15
7.97724e+15
7.93623e+15
7.87686e+15
7.83814e+15
7.75117e+15
7.6292e+15
7.59305e+15
7.48802e+15
7.39368e+15
7.27107e+15
7.12472e+15
6.94744e+15
6.7582e+15
6.60569e+15
6.39993e+15
6.26035e+15
6.078e+15
5.88016e+15
5.66907e+15
5.4423e+15
5.23417e+15
4.93657e+15
4.69196e+15
4.4841e+15
4.2209e+15
3.97035e+15
3.6996e+15
3.40003e+15
3.1592e+15
2.88339e+15
2.5878e+15
2.3125e+15
2.01108e+15
1.71433e+15
1.41595e+15
1.10351e+15
8.00537e+14
4.23212e+14
4.43603e+14
8.72866e+14
1.1958e+15
1.52962e+15
1.83771e+15
2.14788e+15
2.46037e+15
2.78482e+15
3.05365e+15
3.3449e+15
3.63954e+15
3.92927e+15
4.2035e+15
4.52199e+15
4.79819e+15
5.04013e+15
5.31324e+15
5.50725e+15
5.81418e+15
6.03269e+15
6.21057e+15
6.42694e+15
6.62375e+15
6.8618e+15
7.03362e+15
7.18322e+15
7.40028e+15
7.50272e+15
7.63028e+15
7.82577e+15
7.88119e+15
7.98804e+15
8.12185e+15
8.15078e+15
8.22615e+15
8.31582e+15
8.3708e+15
8.39856e+15
8.40556e+15
8.42419e+15
8.42074e+15
8.44381e+15
8.40064e+15
8.3181e+15
8.31726e+15
8.26022e+15
8.17602e+15
8.08691e+15
8.03449e+15
7.86913e+15
7.74904e+15
7.61747e+15
7.4713e+15
7.30308e+15
7.15105e+15
6.98339e+15
6.79043e+15
6.57251e+15
6.39673e+15
6.14935e+15
5.94326e+15
5.722e+15
5.44953e+15
5.22719e+15
4.96747e+15
4.7347e+15
4.44097e+15
4.1673e+15
3.89509e+15
3.59834e+15
3.36421e+15
3.03905e+15
2.70851e+15
2.42201e+15
2.12534e+15
1.81077e+15
1.48777e+15
1.15679e+15
8.35714e+14
4.46704e+14
4.72848e+14
9.00268e+14
1.25752e+15
1.60312e+15
1.94664e+15
2.27693e+15
2.58257e+15
2.89309e+15
3.18454e+15
3.51426e+15
3.85161e+15
4.10625e+15
4.43725e+15
4.73986e+15
5.01031e+15
5.2752e+15
5.5739e+15
5.79947e+15
6.07574e+15
6.32917e+15
6.54163e+15
6.78026e+15
6.99837e+15
7.16552e+15
7.35839e+15
7.57391e+15
7.75627e+15
7.93541e+15
8.0307e+15
8.22294e+15
8.31759e+15
8.42806e+15
8.51347e+15
8.55352e+15
8.64338e+15
8.71336e+15
8.83077e+15
8.84275e+15
8.86746e+15
8.88006e+15
8.89959e+15
8.84461e+15
8.82364e+15
8.72783e+15
8.72546e+15
8.65577e+15
8.58735e+15
8.48883e+15
8.43171e+15
8.25088e+15
8.14584e+15
7.98515e+15
7.89241e+15
7.72096e+15
7.54401e+15
7.35662e+15
7.11994e+15
6.87626e+15
6.67567e+15
6.47594e+15
6.293e+15
5.96946e+15
5.74076e+15
5.50683e+15
5.22686e+15
4.94665e+15
4.68107e+15
4.35888e+15
4.11281e+15
3.83665e+15
3.53273e+15
3.17608e+15
2.84942e+15
2.53485e+15
2.21708e+15
1.87959e+15
1.54691e+15
1.21827e+15
8.76733e+14
4.73659e+14
4.96723e+14
9.47668e+14
1.31715e+15
1.68312e+15
2.01276e+15
2.36506e+15
2.67501e+15
2.99411e+15
3.33976e+15
3.72248e+15
4.02863e+15
4.29216e+15
4.65409e+15
4.98576e+15
5.28167e+15
5.55305e+15
5.84341e+15
6.11095e+15
6.36784e+15
6.62268e+15
6.89815e+15
7.08673e+15
7.31892e+15
7.52464e+15
7.76104e+15
7.94369e+15
8.13556e+15
8.3056e+15
8.44557e+15
8.65763e+15
8.68424e+15
8.82307e+15
8.88717e+15
8.93231e+15
9.04831e+15
9.11564e+15
9.21035e+15
9.22318e+15
9.27175e+15
9.2788e+15
9.2664e+15
9.2749e+15
9.22658e+15
9.16233e+15
9.12036e+15
9.02953e+15
9.03123e+15
8.89809e+15
8.78711e+15
8.63108e+15
8.50019e+15
8.39744e+15
8.23715e+15
8.05338e+15
7.89083e+15
7.674e+15
7.46263e+15
7.22726e+15
7.02094e+15
6.80326e+15
6.53778e+15
6.25442e+15
6.01959e+15
5.79815e+15
5.50531e+15
5.16628e+15
4.88521e+15
4.61929e+15
4.28644e+15
3.99676e+15
3.69237e+15
3.31827e+15
3.00442e+15
2.68778e+15
2.31399e+15
1.96375e+15
1.60124e+15
1.27713e+15
9.24184e+14
5.00536e+14
5.29773e+14
1.0097e+15
1.37083e+15
1.74588e+15
2.07456e+15
2.47349e+15
2.82591e+15
3.13925e+15
3.54515e+15
3.87854e+15
4.16562e+15
4.51289e+15
4.83617e+15
5.22082e+15
5.5402e+15
5.8136e+15
6.13267e+15
6.39828e+15
6.6478e+15
6.92291e+15
7.14665e+15
7.38992e+15
7.62565e+15
7.94006e+15
8.1278e+15
8.27167e+15
8.4534e+15
8.63883e+15
8.79347e+15
8.97949e+15
9.05899e+15
9.20368e+15
9.27903e+15
9.392e+15
9.45409e+15
9.53368e+15
9.6009e+15
9.64681e+15
9.61958e+15
9.66663e+15
9.64489e+15
9.64385e+15
9.671e+15
9.55478e+15
9.55537e+15
9.46127e+15
9.43343e+15
9.29912e+15
9.16333e+15
9.00258e+15
8.88823e+15
8.76386e+15
8.62659e+15
8.4176e+15
8.20831e+15
8.04198e+15
7.77857e+15
7.58035e+15
7.32179e+15
7.11743e+15
6.81962e+15
6.54121e+15
6.26447e+15
6.07471e+15
5.76945e+15
5.44312e+15
5.14829e+15
4.84447e+15
4.47218e+15
4.16818e+15
3.84112e+15
3.46608e+15
3.12302e+15
2.78533e+15
2.42518e+15
2.04828e+15
1.69658e+15
1.33152e+15
9.53871e+14
5.21521e+14
5.37475e+14
1.05305e+15
1.46308e+15
1.80536e+15
2.17591e+15
2.58393e+15
2.93518e+15
3.30659e+15
3.66837e+15
4.02999e+15
4.34566e+15
4.70637e+15
5.07369e+15
5.42162e+15
5.76096e+15
6.07465e+15
6.41071e+15
6.68871e+15
6.9763e+15
7.2421e+15
7.4641e+15
7.70934e+15
7.92465e+15
8.25023e+15
8.45104e+15
8.61344e+15
8.81077e+15
8.98959e+15
9.15611e+15
9.35637e+15
9.47072e+15
9.60229e+15
9.66343e+15
9.74612e+15
9.8725e+15
9.96248e+15
1.00163e+16
1.00119e+16
1.00537e+16
1.00507e+16
1.00459e+16
1.00828e+16
1.00674e+16
1.0014e+16
9.93879e+15
9.83121e+15
9.74001e+15
9.62351e+15
9.52894e+15
9.4052e+15
9.303e+15
9.11946e+15
8.96914e+15
8.76156e+15
8.54419e+15
8.36783e+15
8.11553e+15
7.9204e+15
7.64821e+15
7.41966e+15
7.16882e+15
6.87545e+15
6.5682e+15
6.31492e+15
6.02654e+15
5.69197e+15
5.38145e+15
5.04151e+15
4.67933e+15
4.35164e+15
4.02842e+15
3.60326e+15
3.26009e+15
2.87015e+15
2.52127e+15
2.13811e+15
1.76953e+15
1.38551e+15
9.96969e+14
5.47325e+14
5.6869e+14
1.10567e+15
1.50491e+15
1.87704e+15
2.29932e+15
2.69194e+15
3.05507e+15
3.43057e+15
3.76993e+15
4.16681e+15
4.50913e+15
4.88391e+15
5.27853e+15
5.61899e+15
5.9926e+15
6.34768e+15
6.65577e+15
6.97984e+15
7.24462e+15
7.49916e+15
7.76969e+15
8.03079e+15
8.28445e+15
8.54828e+15
8.80101e+15
9.02579e+15
9.16298e+15
9.35552e+15
9.55012e+15
9.73673e+15
9.85095e+15
9.96437e+15
1.01275e+16
1.02241e+16
1.02792e+16
1.03833e+16
1.04046e+16
1.04712e+16
1.04573e+16
1.04667e+16
1.04557e+16
1.04778e+16
1.04571e+16
1.04393e+16
1.02992e+16
1.02502e+16
1.00872e+16
1.0004e+16
9.91664e+15
9.80804e+15
9.65865e+15
9.43656e+15
9.25059e+15
9.06781e+15
8.8703e+15
8.63442e+15
8.37927e+15
8.18098e+15
7.93403e+15
7.68654e+15
7.42777e+15
7.14482e+15
6.806e+15
6.58382e+15
6.23064e+15
5.89414e+15
5.5544e+15
5.236e+15
4.85616e+15
4.53041e+15
4.15691e+15
3.75721e+15
3.40241e+15
2.99937e+15
2.63851e+15
2.22429e+15
1.81782e+15
1.43325e+15
1.04637e+15
5.70464e+14
5.93003e+14
1.14167e+15
1.57537e+15
1.98399e+15
2.37561e+15
2.79461e+15
3.16684e+15
3.54679e+15
3.93629e+15
4.37169e+15
4.72036e+15
5.13233e+15
5.50616e+15
5.82734e+15
6.20648e+15
6.5259e+15
6.89318e+15
7.22031e+15
7.50196e+15
7.77318e+15
8.07932e+15
8.36534e+15
8.64751e+15
8.90119e+15
9.118e+15
9.35101e+15
9.56512e+15
9.70152e+15
9.86432e+15
1.0031e+16
1.02381e+16
1.0324e+16
1.04689e+16
1.06084e+16
1.06891e+16
1.07553e+16
1.07813e+16
1.08634e+16
1.08628e+16
1.09052e+16
1.08579e+16
1.08406e+16
1.07982e+16
1.07983e+16
1.06985e+16
1.06137e+16
1.04612e+16
1.03664e+16
1.03062e+16
1.01257e+16
9.99783e+15
9.81734e+15
9.64005e+15
9.39925e+15
9.22913e+15
9.00558e+15
8.68002e+15
8.47102e+15
8.25979e+15
7.96679e+15
7.69913e+15
7.42924e+15
7.0757e+15
6.83311e+15
6.50083e+15
6.14212e+15
5.76803e+15
5.41747e+15
5.06414e+15
4.67032e+15
4.28397e+15
3.92127e+15
3.54927e+15
3.11634e+15
2.75768e+15
2.31357e+15
1.90608e+15
1.50167e+15
1.08413e+15
5.66961e+14
6.12321e+14
1.16235e+15
1.62541e+15
2.03124e+15
2.45647e+15
2.89257e+15
3.30774e+15
3.70342e+15
4.10748e+15
4.51386e+15
4.88235e+15
5.29198e+15
5.67639e+15
6.05678e+15
6.44087e+15
6.80735e+15
7.1486e+15
7.42028e+15
7.76062e+15
8.07918e+15
8.40241e+15
8.66635e+15
8.95077e+15
9.20437e+15
9.40798e+15
9.6447e+15
9.86976e+15
1.00437e+16
1.01995e+16
1.04115e+16
1.05528e+16
1.06923e+16
1.08442e+16
1.09724e+16
1.10783e+16
1.11714e+16
1.11799e+16
1.1222e+16
1.12383e+16
1.12333e+16
1.12563e+16
1.1278e+16
1.1261e+16
1.11988e+16
1.11378e+16
1.10351e+16
1.08569e+16
1.07493e+16
1.06322e+16
1.04769e+16
1.03487e+16
1.01821e+16
9.97539e+15
9.77757e+15
9.53977e+15
9.36165e+15
9.0448e+15
8.78903e+15
8.51558e+15
8.22368e+15
7.92599e+15
7.69763e+15
7.32458e+15
7.02182e+15
6.69089e+15
6.3716e+15
5.99107e+15
5.60762e+15
5.23455e+15
4.84887e+15
4.4479e+15
4.05062e+15
3.60793e+15
3.21324e+15
2.82101e+15
2.38047e+15
1.97956e+15
1.55545e+15
1.12029e+15
5.85188e+14
6.28939e+14
1.19476e+15
1.66249e+15
2.11009e+15
2.54519e+15
2.98662e+15
3.41541e+15
3.8417e+15
4.22936e+15
4.66234e+15
5.10061e+15
5.49354e+15
5.88271e+15
6.2622e+15
6.64637e+15
7.00779e+15
7.35065e+15
7.64593e+15
8.04992e+15
8.31856e+15
8.58477e+15
8.92819e+15
9.1999e+15
9.46433e+15
9.72351e+15
9.96932e+15
1.02153e+16
1.03944e+16
1.05748e+16
1.07628e+16
1.09693e+16
1.11284e+16
1.12201e+16
1.1324e+16
1.146e+16
1.1497e+16
1.16052e+16
1.16433e+16
1.16647e+16
1.16894e+16
1.16593e+16
1.16606e+16
1.16012e+16
1.16081e+16
1.14891e+16
1.13713e+16
1.12724e+16
1.11691e+16
1.10462e+16
1.0876e+16
1.06804e+16
1.0509e+16
1.02824e+16
1.0068e+16
9.87723e+15
9.62504e+15
9.35787e+15
9.04896e+15
8.79104e+15
8.46654e+15
8.1437e+15
7.89376e+15
7.56795e+15
7.23867e+15
6.9145e+15
6.56996e+15
6.22035e+15
5.81806e+15
5.43572e+15
4.99822e+15
4.58392e+15
4.19408e+15
3.72772e+15
3.34492e+15
2.90655e+15
2.46728e+15
2.03569e+15
1.60386e+15
1.15664e+15
6.13234e+14
6.47863e+14
1.21947e+15
1.71304e+15
2.18851e+15
2.63133e+15
3.05773e+15
3.5044e+15
3.94761e+15
4.39465e+15
4.78277e+15
5.21591e+15
5.64746e+15
6.04685e+15
6.46979e+15
6.86424e+15
7.2002e+15
7.57421e+15
7.88955e+15
8.24976e+15
8.59306e+15
8.91496e+15
9.20685e+15
9.51595e+15
9.78266e+15
1.00884e+16
1.02662e+16
1.0531e+16
1.07126e+16
1.08834e+16
1.10939e+16
1.12723e+16
1.14331e+16
1.15915e+16
1.16887e+16
1.17379e+16
1.18836e+16
1.19266e+16
1.20364e+16
1.20275e+16
1.20552e+16
1.20502e+16
1.20278e+16
1.198e+16
1.19491e+16
1.1894e+16
1.17753e+16
1.15747e+16
1.15559e+16
1.13507e+16
1.12273e+16
1.10279e+16
1.08578e+16
1.05821e+16
1.03636e+16
1.01445e+16
9.91983e+15
9.6441e+15
9.37672e+15
9.08797e+15
8.77908e+15
8.46388e+15
8.14516e+15
7.81217e+15
7.42468e+15
7.08959e+15
6.74416e+15
6.35597e+15
5.95587e+15
5.53704e+15
5.11726e+15
4.67886e+15
4.3323e+15
3.87415e+15
3.44199e+15
3.005e+15
2.56294e+15
2.11973e+15
1.65573e+15
1.1787e+15
6.32691e+14
6.62225e+14
1.25528e+15
1.75625e+15
2.24853e+15
2.70198e+15
3.13919e+15
3.61244e+15
4.06929e+15
4.52867e+15
4.95931e+15
5.41987e+15
5.81659e+15
6.26317e+15
6.63914e+15
7.01576e+15
7.4254e+15
7.77769e+15
8.15846e+15
8.50219e+15
8.88465e+15
9.1816e+15
9.45573e+15
9.78815e+15
1.00972e+16
1.03534e+16
1.06378e+16
1.08782e+16
1.10472e+16
1.12692e+16
1.144e+16
1.16643e+16
1.18393e+16
1.19279e+16
1.20247e+16
1.20963e+16
1.22482e+16
1.22929e+16
1.23298e+16
1.23799e+16
1.24633e+16
1.24281e+16
1.23632e+16
1.23491e+16
1.23397e+16
1.21978e+16
1.20843e+16
1.18906e+16
1.1879e+16
1.17248e+16
1.15359e+16
1.13545e+16
1.11589e+16
1.09199e+16
1.06803e+16
1.04187e+16
1.02025e+16
9.9182e+15
9.62592e+15
9.34837e+15
9.05088e+15
8.69896e+15
8.35015e+15
8.03869e+15
7.67536e+15
7.29246e+15
6.97199e+15
6.56854e+15
6.10825e+15
5.70246e+15
5.28844e+15
4.86085e+15
4.44479e+15
4.00189e+15
3.53951e+15
3.11317e+15
2.62876e+15
2.1818e+15
1.69516e+15
1.21259e+15
6.41603e+14
6.78683e+14
1.29566e+15
1.81518e+15
2.30655e+15
2.77286e+15
3.24017e+15
3.7367e+15
4.21156e+15
4.65034e+15
5.14893e+15
5.58318e+15
5.98256e+15
6.42794e+15
6.82882e+15
7.21555e+15
7.63263e+15
7.99574e+15
8.35989e+15
8.76302e+15
9.11234e+15
9.4294e+15
9.74682e+15
1.00924e+16
1.04299e+16
1.06366e+16
1.08963e+16
1.118e+16
1.13464e+16
1.15539e+16
1.17532e+16
1.1939e+16
1.20975e+16
1.227e+16
1.23804e+16
1.2534e+16
1.26209e+16
1.27025e+16
1.27206e+16
1.277e+16
1.28256e+16
1.27781e+16
1.27214e+16
1.26999e+16
1.26062e+16
1.24894e+16
1.24019e+16
1.23042e+16
1.2164e+16
1.2037e+16
1.18344e+16
1.16716e+16
1.1422e+16
1.12144e+16
1.10032e+16
1.07391e+16
1.04219e+16
1.01986e+16
9.90426e+15
9.60548e+15
9.28869e+15
8.92269e+15
8.60433e+15
8.28986e+15
7.91081e+15
7.53786e+15
7.1193e+15
6.66989e+15
6.29273e+15
5.82819e+15
5.40243e+15
4.98021e+15
4.58808e+15
4.12906e+15
3.68471e+15
3.22469e+15
2.70164e+15
2.25414e+15
1.77345e+15
1.26622e+15
6.63444e+14
6.92958e+14
1.33822e+15
1.88807e+15
2.36765e+15
2.86652e+15
3.37271e+15
3.85515e+15
4.37231e+15
4.81132e+15
5.27408e+15
5.74166e+15
6.16912e+15
6.63806e+15
6.99368e+15
7.433e+15
7.86049e+15
8.22626e+15
8.61995e+15
9.0048e+15
9.35747e+15
9.71035e+15
1.00452e+16
1.04245e+16
1.06729e+16
1.09413e+16
1.12379e+16
1.15098e+16
1.16531e+16
1.18785e+16
1.21482e+16
1.22868e+16
1.24698e+16
1.26226e+16
1.27692e+16
1.29147e+16
1.30235e+16
1.30508e+16
1.30565e+16
1.30735e+16
1.30783e+16
1.31195e+16
1.3077e+16
1.3002e+16
1.29033e+16
1.28232e+16
1.27226e+16
1.26122e+16
1.24948e+16
1.22972e+16
1.21236e+16
1.19123e+16
1.17307e+16
1.14928e+16
1.12566e+16
1.10244e+16
1.07208e+16
1.04041e+16
1.01156e+16
9.8166e+15
9.48448e+15
9.17078e+15
8.81599e+15
8.49432e+15
8.13621e+15
7.69894e+15
7.32136e+15
6.89026e+15
6.44278e+15
5.95533e+15
5.54049e+15
5.08873e+15
4.69753e+15
4.26072e+15
3.78401e+15
3.29388e+15
2.78848e+15
2.32477e+15
1.8135e+15
1.29218e+15
6.83226e+14
7.05979e+14
1.38403e+15
1.92642e+15
2.44898e+15
2.95736e+15
3.44096e+15
3.94347e+15
4.47268e+15
4.93149e+15
5.40357e+15
5.88751e+15
6.38554e+15
6.80507e+15
7.21746e+15
7.66539e+15
8.06799e+15
8.44936e+15
8.84733e+15
9.23801e+15
9.60907e+15
9.93303e+15
1.03269e+16
1.06352e+16
1.09673e+16
1.12281e+16
1.14998e+16
1.17893e+16
1.19941e+16
1.2266e+16
1.24894e+16
1.2666e+16
1.27974e+16
1.29642e+16
1.31567e+16
1.31973e+16
1.3313e+16
1.33351e+16
1.33802e+16
1.33852e+16
1.33608e+16
1.34099e+16
1.33204e+16
1.33149e+16
1.32362e+16
1.31474e+16
1.30217e+16
1.28524e+16
1.27401e+16
1.26283e+16
1.24379e+16
1.22516e+16
1.20042e+16
1.17887e+16
1.15099e+16
1.12515e+16
1.09294e+16
1.06257e+16
1.03414e+16
1.00422e+16
9.71635e+15
9.36446e+15
8.96539e+15
8.65571e+15
8.29935e+15
7.86103e+15
7.47722e+15