/*--------------------------------*- C++ -*----------------------------------*\
  =========                 |
  \\      /  F ield         | OpenFOAM: The Open Source CFD Toolbox
   \\    /   O peration     | Website:  https://openfoam.org
    \\  /    A nd           | Version:  6
     \\/     M anipulation  |
\*---------------------------------------------------------------------------*/
FoamFile
{
    version     2.0;
    format      ascii;
    class       volScalarField;
    location    "600";
    object      dnp7_s;
}
// * * * * * * * * * * * * * * * * * * * * * * * * * * * * * * * * * * * * * //

dimensions      [0 -3 -1 0 0 0 0];

internalField   nonuniform List<scalar> 
6400
(
9.23587e+13
1.49957e+14
2.02873e+14
2.56792e+14
3.26044e+14
3.79861e+14
4.19172e+14
4.81619e+14
5.28869e+14
5.87944e+14
6.20476e+14
7.00452e+14
7.23994e+14
7.62572e+14
8.29503e+14
8.65228e+14
9.3997e+14
9.44033e+14
1.01592e+15
1.02993e+15
1.10592e+15
1.12366e+15
1.12434e+15
1.15724e+15
1.21419e+15
1.21161e+15
1.26197e+15
1.27139e+15
1.31192e+15
1.34026e+15
1.43674e+15
1.37142e+15
1.40232e+15
1.4237e+15
1.45327e+15
1.40793e+15
1.47782e+15
1.43913e+15
1.44796e+15
1.42008e+15
1.50021e+15
1.43487e+15
1.48365e+15
1.4199e+15
1.4139e+15
1.40385e+15
1.42691e+15
1.41451e+15
1.35321e+15
1.39459e+15
1.33045e+15
1.37975e+15
1.29431e+15
1.27387e+15
1.23597e+15
1.21438e+15
1.17497e+15
1.16041e+15
1.09966e+15
1.0678e+15
1.02292e+15
9.88927e+14
9.47395e+14
9.0381e+14
8.73736e+14
8.07887e+14
7.95379e+14
7.06772e+14
7.05089e+14
6.35726e+14
5.88549e+14
5.35813e+14
4.6857e+14
4.29283e+14
3.68805e+14
3.45254e+14
2.66557e+14
2.10242e+14
1.62845e+14
9.29535e+13
1.4017e+14
2.19556e+14
3.23568e+14
4.23642e+14
4.97717e+14
5.91361e+14
6.51004e+14
7.44198e+14
8.57508e+14
8.87257e+14
9.68209e+14
1.05209e+15
1.1641e+15
1.17999e+15
1.27736e+15
1.38394e+15
1.43356e+15
1.51027e+15
1.5392e+15
1.61591e+15
1.65182e+15
1.74963e+15
1.751e+15
1.79624e+15
1.88913e+15
1.91018e+15
1.96624e+15
1.97547e+15
2.0924e+15
2.06517e+15
2.11982e+15
2.09043e+15
2.22839e+15
2.14454e+15
2.19151e+15
2.1963e+15
2.23191e+15
2.22832e+15
2.27731e+15
2.25597e+15
2.28723e+15
2.29561e+15
2.27355e+15
2.22785e+15
2.18611e+15
2.17227e+15
2.212e+15
2.13402e+15
2.14477e+15
2.12029e+15
2.09869e+15
2.07318e+15
2.04446e+15
1.97342e+15
1.91104e+15
1.8566e+15
1.81066e+15
1.75575e+15
1.73631e+15
1.64627e+15
1.57861e+15
1.51805e+15
1.45057e+15
1.36345e+15
1.34879e+15
1.28714e+15
1.19659e+15
1.11801e+15
1.03665e+15
1.00542e+15
9.07896e+14
8.14877e+14
7.15523e+14
6.47537e+14
5.83201e+14
4.87256e+14
4.07075e+14
3.13739e+14
2.6185e+14
1.36002e+14
1.90813e+14
3.09355e+14
4.17026e+14
5.65341e+14
6.38524e+14
7.55119e+14
8.61471e+14
9.79859e+14
1.1096e+15
1.16771e+15
1.26259e+15
1.36794e+15
1.51068e+15
1.56313e+15
1.72918e+15
1.82821e+15
1.88551e+15
1.96574e+15
2.06131e+15
2.16778e+15
2.18895e+15
2.33327e+15
2.31398e+15
2.38924e+15
2.49872e+15
2.54617e+15
2.62143e+15
2.75235e+15
2.74406e+15
2.73749e+15
2.78944e+15
2.87659e+15
2.88711e+15
2.90737e+15
2.9352e+15
2.97522e+15
2.99819e+15
3.01349e+15
2.92494e+15
2.96432e+15
2.94637e+15
2.99363e+15
2.99146e+15
2.99662e+15
2.92712e+15
2.88229e+15
2.89099e+15
2.8456e+15
2.79952e+15
2.80421e+15
2.79176e+15
2.72683e+15
2.69933e+15
2.61848e+15
2.53769e+15
2.48158e+15
2.3677e+15
2.37132e+15
2.31198e+15
2.21045e+15
2.07483e+15
2.05178e+15
1.9608e+15
1.81302e+15
1.76105e+15
1.70633e+15
1.58432e+15
1.48948e+15
1.36597e+15
1.32577e+15
1.2256e+15
1.12605e+15
9.57756e+14
9.18982e+14
7.68378e+14
6.51642e+14
5.65607e+14
4.24108e+14
3.2507e+14
1.92499e+14
2.31558e+14
3.74596e+14
5.46757e+14
6.97012e+14
8.31127e+14
9.58137e+14
1.09346e+15
1.21549e+15
1.40259e+15
1.50788e+15
1.59916e+15
1.74616e+15
1.82763e+15
2.02338e+15
2.11808e+15
2.24239e+15
2.35122e+15
2.4431e+15
2.60321e+15
2.65766e+15
2.81923e+15
2.88819e+15
2.91663e+15
3.0403e+15
3.11283e+15
3.23534e+15
3.18375e+15
3.29457e+15
3.38718e+15
3.39593e+15
3.53569e+15
3.55276e+15
3.54401e+15
3.645e+15
3.6387e+15
3.67889e+15
3.72159e+15
3.73349e+15
3.68685e+15
3.6847e+15
3.71646e+15
3.74801e+15
3.72126e+15
3.63071e+15
3.6404e+15
3.57228e+15
3.53603e+15
3.56448e+15
3.52109e+15
3.47521e+15
3.43756e+15
3.39393e+15
3.33111e+15
3.24042e+15
3.1695e+15
3.09355e+15
3.0257e+15
2.92146e+15
2.82462e+15
2.76262e+15
2.62496e+15
2.5282e+15
2.401e+15
2.29914e+15
2.23346e+15
2.09003e+15
1.97863e+15
1.90307e+15
1.74e+15
1.63132e+15
1.51848e+15
1.38646e+15
1.2342e+15
1.10676e+15
9.7779e+14
8.10551e+14
6.92421e+14
5.38941e+14
3.78838e+14
2.35826e+14
2.7225e+14
4.97883e+14
6.29122e+14
8.14909e+14
9.70585e+14
1.16138e+15
1.31322e+15
1.47597e+15
1.63246e+15
1.80139e+15
1.9663e+15
2.06114e+15
2.19283e+15
2.40726e+15
2.58596e+15
2.70858e+15
2.84104e+15
2.97064e+15
3.04068e+15
3.18604e+15
3.27306e+15
3.40318e+15
3.51162e+15
3.61971e+15
3.7521e+15
3.84602e+15
3.90163e+15
3.97199e+15
4.02766e+15
4.13992e+15
4.1449e+15
4.16617e+15
4.26754e+15
4.22302e+15
4.3155e+15
4.3338e+15
4.37139e+15
4.49004e+15
4.47004e+15
4.51107e+15
4.45716e+15
4.48379e+15
4.47401e+15
4.39317e+15
4.26334e+15
4.32137e+15
4.31778e+15
4.22237e+15
4.27076e+15
4.15248e+15
4.13301e+15
3.96884e+15
3.95625e+15
4.00188e+15
3.86193e+15
3.74752e+15
3.65843e+15
3.51421e+15
3.38839e+15
3.31479e+15
3.1898e+15
2.98239e+15
2.87008e+15
2.74497e+15
2.63955e+15
2.51601e+15
2.39659e+15
2.31173e+15
2.07894e+15
1.96249e+15
1.78455e+15
1.6136e+15
1.50141e+15
1.28629e+15
1.10985e+15
9.70149e+14
8.12661e+14
6.52756e+14
4.4474e+14
2.71461e+14
3.28328e+14
5.58682e+14
7.6254e+14
9.75896e+14
1.12116e+15
1.32591e+15
1.51636e+15
1.73001e+15
1.90316e+15
2.0838e+15
2.25243e+15
2.40349e+15
2.58595e+15
2.81632e+15
2.99567e+15
3.07052e+15
3.29159e+15
3.39352e+15
3.49989e+15
3.7304e+15
3.88288e+15
3.97773e+15
4.05622e+15
4.21027e+15
4.31347e+15
4.45302e+15
4.51521e+15
4.61126e+15
4.69918e+15
4.79546e+15
4.76555e+15
4.85861e+15
4.97107e+15
5.01676e+15
5.06491e+15
5.10152e+15
5.14674e+15
5.2265e+15
5.29984e+15
5.14972e+15
5.19549e+15
5.2004e+15
5.12326e+15
5.13307e+15
5.09335e+15
5.0972e+15
5.01887e+15
4.96254e+15
4.93048e+15
4.85004e+15
4.79408e+15
4.69483e+15
4.56943e+15
4.5402e+15
4.44284e+15
4.34918e+15
4.25314e+15
4.08354e+15
3.94616e+15
3.87324e+15
3.74817e+15
3.53807e+15
3.41903e+15
3.20045e+15
3.07919e+15
2.95247e+15
2.82701e+15
2.61128e+15
2.42876e+15
2.28272e+15
2.0875e+15
1.88813e+15
1.70487e+15
1.50016e+15
1.30053e+15
1.14667e+15
9.53459e+14
7.61278e+14
5.17802e+14
3.24945e+14
3.65191e+14
6.10211e+14
8.66117e+14
1.10026e+15
1.27167e+15
1.49424e+15
1.71237e+15
1.94848e+15
2.14267e+15
2.38958e+15
2.55825e+15
2.75264e+15
2.96778e+15
3.16369e+15
3.31726e+15
3.54301e+15
3.65249e+15
3.88274e+15
4.10412e+15
4.25801e+15
4.36292e+15
4.54525e+15
4.61199e+15
4.7057e+15
4.86448e+15
5.05634e+15
5.25081e+15
5.30773e+15
5.24709e+15
5.43445e+15
5.5193e+15
5.58085e+15
5.62755e+15
5.66098e+15
5.76133e+15
5.79798e+15
5.93594e+15
5.92191e+15
5.84054e+15
5.88774e+15
5.90191e+15
5.92778e+15
5.89196e+15
5.89595e+15
5.79422e+15
5.76253e+15
5.76638e+15
5.72088e+15
5.61103e+15
5.53476e+15
5.40125e+15
5.32662e+15
5.38162e+15
5.11633e+15
4.99029e+15
5.02487e+15
4.88911e+15
4.66543e+15
4.45088e+15
4.4301e+15
4.29001e+15
4.1008e+15
3.85961e+15
3.67319e+15
3.51821e+15
3.32257e+15
3.27901e+15
3.04261e+15
2.77549e+15
2.63636e+15
2.36161e+15
2.16207e+15
1.94812e+15
1.73033e+15
1.4681e+15
1.29372e+15
1.04446e+15
8.81679e+14
6.33071e+14
3.91266e+14
4.11378e+14
7.05923e+14
9.86913e+14
1.23266e+15
1.44545e+15
1.71692e+15
1.96155e+15
2.14926e+15
2.44674e+15
2.67928e+15
2.87044e+15
3.10107e+15
3.38037e+15
3.50973e+15
3.72907e+15
3.98955e+15
4.19195e+15
4.39088e+15
4.53345e+15
4.75234e+15
4.86783e+15
5.0251e+15
5.22677e+15
5.34185e+15
5.48559e+15
5.61131e+15
5.83825e+15
5.8005e+15
6.06629e+15
6.18825e+15
6.15211e+15
6.21751e+15
6.27723e+15
6.35034e+15
6.46895e+15
6.44294e+15
6.55792e+15
6.61645e+15
6.6486e+15
6.64337e+15
6.65897e+15
6.60095e+15
6.56586e+15
6.69171e+15
6.51646e+15
6.38194e+15
6.45762e+15
6.3596e+15
6.31296e+15
6.12835e+15
6.10399e+15
6.0707e+15
5.84109e+15
5.73519e+15
5.60947e+15
5.53036e+15
5.40349e+15
5.33662e+15
5.13335e+15
4.8793e+15
4.7229e+15
4.51052e+15
4.31728e+15
4.0725e+15
3.97137e+15
3.76625e+15
3.5767e+15
3.40391e+15
3.20091e+15
2.92388e+15
2.6732e+15
2.41684e+15
2.21424e+15
1.91862e+15
1.70093e+15
1.43501e+15
1.18056e+15
9.8978e+14
7.19486e+14
4.22626e+14
4.45923e+14
7.63769e+14
1.10949e+15
1.37038e+15
1.65945e+15
1.85728e+15
2.17183e+15
2.44916e+15
2.67111e+15
2.94432e+15
3.24266e+15
3.38382e+15
3.70893e+15
4.00862e+15
4.25536e+15
4.30424e+15
4.58474e+15
4.94562e+15
5.06271e+15
5.23994e+15
5.45069e+15
5.58971e+15
5.69024e+15
5.97296e+15
6.0557e+15
6.21467e+15
6.42799e+15
6.47894e+15
6.58728e+15
6.72134e+15
6.87132e+15
6.92641e+15
7.10978e+15
7.12409e+15
7.12432e+15
7.19917e+15
7.28347e+15
7.36497e+15
7.4174e+15
7.38488e+15
7.35062e+15
7.35685e+15
7.25283e+15
7.22802e+15
7.21086e+15
7.07996e+15
7.04864e+15
6.94948e+15
6.96411e+15
6.87678e+15
6.72841e+15
6.59136e+15
6.45216e+15
6.38767e+15
6.23861e+15
6.12344e+15
6.02327e+15
5.85884e+15
5.59594e+15
5.46124e+15
5.1693e+15
5.09147e+15
4.88017e+15
4.62791e+15
4.30275e+15
4.11454e+15
3.97619e+15
3.69969e+15
3.49513e+15
3.20466e+15
3.00434e+15
2.76139e+15
2.44427e+15
2.13905e+15
1.88197e+15
1.61887e+15
1.32791e+15
1.08168e+15
7.54628e+14
4.74033e+14
5.01469e+14
8.0929e+14
1.17928e+15
1.49058e+15
1.80984e+15
2.06934e+15
2.37902e+15
2.63602e+15
2.94965e+15
3.25154e+15
3.57772e+15
3.80183e+15
3.99451e+15
4.36023e+15
4.61649e+15
4.86113e+15
5.10546e+15
5.33983e+15
5.56462e+15
5.77757e+15
6.03423e+15
6.13541e+15
6.33479e+15
6.56857e+15
6.74735e+15
6.96443e+15
7.06905e+15
7.21274e+15
7.35488e+15
7.45028e+15
7.58448e+15
7.67507e+15
7.78175e+15
7.80299e+15
7.94113e+15
7.89458e+15
8.01259e+15
8.00369e+15
7.98695e+15
8.05635e+15
8.13432e+15
8.05259e+15
8.04222e+15
7.9559e+15
7.93788e+15
7.82551e+15
7.76762e+15
7.67502e+15
7.63131e+15
7.52536e+15
7.43946e+15
7.31246e+15
7.18523e+15
7.05946e+15
6.83403e+15
6.81872e+15
6.56884e+15
6.28975e+15
6.18481e+15
5.95782e+15
5.70689e+15
5.42546e+15
5.18485e+15
4.9785e+15
4.79101e+15
4.6153e+15
4.34071e+15
4.10149e+15
3.72541e+15
3.53803e+15
3.27043e+15
2.96971e+15
2.58386e+15
2.3324e+15
2.03408e+15
1.77466e+15
1.45794e+15
1.15004e+15
8.52991e+14
4.93755e+14
5.6724e+14
8.89325e+14
1.27858e+15
1.60463e+15
1.88943e+15
2.25275e+15
2.58721e+15
2.8661e+15
3.24351e+15
3.5473e+15
3.96682e+15
4.14152e+15
4.31809e+15
4.67318e+15
4.98841e+15
5.2287e+15
5.51651e+15
5.7606e+15
6.03249e+15
6.35217e+15
6.54971e+15
6.78528e+15
6.9098e+15
6.96255e+15
7.26067e+15
7.50014e+15
7.72332e+15
7.78276e+15
8.03222e+15
8.0741e+15
8.17422e+15
8.23495e+15
8.34291e+15
8.48854e+15
8.62012e+15
8.64764e+15
8.66296e+15
8.80152e+15
8.72777e+15
8.92857e+15
8.85762e+15
8.76827e+15
8.82221e+15
8.69277e+15
8.63416e+15
8.44588e+15
8.4923e+15
8.42244e+15
8.29489e+15
8.22357e+15
8.1345e+15
7.93434e+15
7.77267e+15
7.60943e+15
7.49817e+15
7.36305e+15
6.98489e+15
6.91453e+15
6.68919e+15
6.47752e+15
6.27883e+15
5.90879e+15
5.73588e+15
5.45133e+15
5.21833e+15
5.06423e+15
4.71597e+15
4.37842e+15
4.15736e+15
3.81022e+15
3.54881e+15
3.21192e+15
2.86605e+15
2.56626e+15
2.25686e+15
1.93661e+15
1.55177e+15
1.26605e+15
9.08846e+14
5.32685e+14
6.495e+14
9.83184e+14
1.35108e+15
1.74106e+15
2.09108e+15
2.4183e+15
2.79447e+15
3.10427e+15
3.4131e+15
3.79309e+15
4.15845e+15
4.47737e+15
4.66488e+15
5.01795e+15
5.34612e+15
5.70501e+15
6.04322e+15
6.27604e+15
6.54238e+15
6.79386e+15
7.00475e+15
7.34387e+15
7.38579e+15
7.66493e+15
7.92994e+15
8.10226e+15
8.32278e+15
8.4429e+15
8.49739e+15
8.75579e+15
8.91527e+15
9.04103e+15
9.22059e+15
9.23312e+15
9.2444e+15
9.31563e+15
9.52294e+15
9.51042e+15
9.38002e+15
9.47707e+15
9.48492e+15
9.56876e+15
9.46084e+15
9.37057e+15
9.23555e+15
9.24059e+15
9.14909e+15
9.00122e+15
8.97852e+15
8.84482e+15
8.76465e+15
8.59728e+15
8.39772e+15
8.32535e+15
8.1517e+15
7.89174e+15
7.73708e+15
7.44505e+15
7.19045e+15
7.04254e+15
6.84156e+15
6.51142e+15
6.25604e+15
5.96067e+15
5.68139e+15
5.37175e+15
5.11005e+15
4.7401e+15
4.41243e+15
4.13122e+15
3.79501e+15
3.52209e+15
3.10656e+15
2.76442e+15
2.41647e+15
2.0647e+15
1.74213e+15
1.36257e+15
9.72594e+14
5.84999e+14
6.73143e+14
1.0691e+15
1.4779e+15
1.8441e+15
2.23628e+15
2.625e+15
2.98688e+15
3.44986e+15
3.68519e+15
4.07883e+15
4.45989e+15
4.80839e+15
5.14467e+15
5.47023e+15
5.72625e+15
6.13413e+15
6.38354e+15
6.65351e+15
6.94278e+15
7.21811e+15
7.50482e+15
7.93357e+15
8.04993e+15
8.29132e+15
8.63751e+15
8.77396e+15
8.97017e+15
9.09951e+15
9.27316e+15
9.44749e+15
9.60027e+15
9.63549e+15
9.75465e+15
1.00512e+16
9.97081e+15
1.01306e+16
1.01345e+16
1.01107e+16
1.01764e+16
1.01564e+16
1.02706e+16
1.01375e+16
1.02195e+16
1.01378e+16
1.0144e+16
1.00139e+16
9.90275e+15
9.84528e+15
9.71901e+15
9.60774e+15
9.4829e+15
9.28994e+15
9.16207e+15
8.89967e+15
8.73525e+15
8.54431e+15
8.32071e+15
8.04974e+15
7.78102e+15
7.52922e+15
7.28613e+15
7.14367e+15
6.72299e+15
6.49784e+15
6.12546e+15
5.81367e+15
5.46468e+15
5.03804e+15
4.82343e+15
4.42469e+15
4.06243e+15
3.73968e+15
3.34758e+15
2.90946e+15
2.60679e+15
2.17429e+15
1.8468e+15
1.45852e+15
1.06648e+15
6.0989e+14
7.12257e+14
1.17775e+15
1.58473e+15
1.96896e+15
2.42747e+15
2.83548e+15
3.18345e+15
3.59091e+15
3.88676e+15
4.39102e+15
4.79848e+15
5.14174e+15
5.55751e+15
5.90499e+15
6.1477e+15
6.46844e+15
6.96466e+15
7.15427e+15
7.59269e+15
7.80193e+15
8.2072e+15
8.3225e+15
8.6021e+15
8.83624e+15
9.17266e+15
9.52188e+15
9.59022e+15
9.82625e+15
9.83968e+15
1.01272e+16
1.01824e+16
1.0384e+16
1.05748e+16
1.06982e+16
1.06219e+16
1.08343e+16
1.08989e+16
1.08979e+16
1.09912e+16
1.09497e+16
1.10326e+16
1.0985e+16
1.09216e+16
1.08332e+16
1.06989e+16
1.05859e+16
1.05545e+16
1.04664e+16
1.04183e+16
1.02588e+16
1.01146e+16
1.00211e+16
9.70677e+15
9.5589e+15
9.35764e+15
9.13148e+15
8.87422e+15
8.71429e+15
8.34337e+15
8.06015e+15
7.84605e+15
7.56458e+15
7.22444e+15
6.91746e+15
6.51087e+15
6.14578e+15
5.82784e+15
5.51412e+15
5.18036e+15
4.79156e+15
4.29934e+15
3.99948e+15
3.60671e+15
3.15411e+15
2.71263e+15
2.38754e+15
1.91267e+15
1.53359e+15
1.10954e+15
6.65993e+14
7.01429e+14
1.22197e+15
1.66078e+15
2.15347e+15
2.57791e+15
3.02303e+15
3.4632e+15
3.84536e+15
4.19252e+15
4.67414e+15
4.98451e+15
5.46729e+15
5.92585e+15
6.28209e+15
6.5953e+15
6.94507e+15
7.34603e+15
7.62063e+15
7.92659e+15
8.30567e+15
8.6903e+15
8.86968e+15
9.13767e+15
9.40736e+15
9.79841e+15
9.91229e+15
1.01997e+16
1.05095e+16
1.0605e+16
1.07781e+16
1.10531e+16
1.10966e+16
1.12793e+16
1.13978e+16
1.15249e+16
1.14723e+16
1.16328e+16
1.158e+16
1.17714e+16
1.17029e+16
1.16742e+16
1.16558e+16
1.17065e+16
1.14763e+16
1.14893e+16
1.13432e+16
1.12363e+16
1.11299e+16
1.1072e+16
1.09552e+16
1.08191e+16
1.05988e+16
1.03988e+16
1.02288e+16
1.00248e+16
9.68452e+15
9.34856e+15
9.16001e+15
8.86353e+15
8.59953e+15
8.32012e+15
7.97388e+15
7.63865e+15
7.26875e+15
6.90439e+15
6.54485e+15
6.22251e+15
5.87435e+15
5.52605e+15
4.99616e+15
4.69964e+15
4.2672e+15
3.77911e+15
3.4074e+15
2.97892e+15
2.57632e+15
2.07543e+15
1.66264e+15
1.20242e+15
7.16142e+14
7.47698e+14
1.29727e+15
1.75892e+15
2.22857e+15
2.67305e+15
3.19968e+15
3.67517e+15
4.12617e+15
4.46022e+15
4.88251e+15
5.35543e+15
5.80041e+15
6.18655e+15
6.61672e+15
6.99722e+15
7.46005e+15
7.76593e+15
8.07029e+15
8.46299e+15
8.74685e+15
9.19523e+15
9.41314e+15
9.75804e+15
1.01229e+16
1.04137e+16
1.05939e+16
1.09993e+16
1.08581e+16
1.11946e+16
1.1409e+16
1.15201e+16
1.18058e+16
1.18508e+16
1.21514e+16
1.21063e+16
1.22475e+16
1.23918e+16
1.22312e+16
1.24076e+16
1.23506e+16
1.22815e+16
1.24097e+16
1.23554e+16
1.22685e+16
1.2286e+16
1.21657e+16
1.20025e+16
1.17692e+16
1.17777e+16
1.1653e+16
1.13726e+16
1.13282e+16
1.10352e+16
1.07209e+16
1.05008e+16
1.02834e+16
9.86211e+15
9.79919e+15
9.42942e+15
9.07034e+15
8.80189e+15
8.54403e+15
8.25293e+15
7.6697e+15
7.42088e+15
6.96746e+15
6.58765e+15
6.18486e+15
5.76111e+15
5.39382e+15
4.89517e+15
4.48231e+15
4.1088e+15
3.61164e+15
3.1364e+15
2.76833e+15
2.20288e+15
1.76695e+15
1.26374e+15
7.37804e+14
7.50555e+14
1.3632e+15
1.88278e+15
2.38543e+15
2.81193e+15
3.29236e+15
3.86807e+15
4.34942e+15
4.78605e+15
5.23388e+15
5.72519e+15
6.20586e+15
6.52752e+15
6.9969e+15
7.45335e+15
7.85527e+15
8.24306e+15
8.54995e+15
9.03823e+15
9.30526e+15
9.64503e+15
9.98072e+15
1.03151e+16
1.06602e+16
1.09569e+16
1.11618e+16
1.15377e+16
1.16191e+16
1.18921e+16
1.21546e+16
1.22473e+16
1.24685e+16
1.25102e+16
1.26657e+16
1.28125e+16
1.29179e+16
1.30166e+16
1.29342e+16
1.30957e+16
1.31182e+16
1.30949e+16
1.30006e+16
1.3035e+16
1.30059e+16
1.28443e+16
1.28215e+16
1.27168e+16
1.2417e+16
1.23725e+16
1.22364e+16
1.21106e+16
1.19224e+16
1.17084e+16
1.14172e+16
1.10396e+16
1.0816e+16
1.04269e+16
1.02438e+16
9.95637e+15
9.6665e+15
9.31554e+15
8.91807e+15
8.65755e+15
8.09542e+15
7.6703e+15
7.3747e+15
6.94815e+15
6.55669e+15
6.11826e+15
5.58888e+15
5.21691e+15
4.78734e+15
4.29728e+15
3.86209e+15
3.34871e+15
2.84948e+15
2.36931e+15
1.8321e+15
1.34196e+15
7.90926e+14
8.44056e+14
1.46074e+15
1.95713e+15
2.52575e+15
3.03182e+15
3.54162e+15
4.04395e+15
4.61154e+15
5.02822e+15
5.50082e+15
5.96961e+15
6.44821e+15
6.88233e+15
7.43515e+15
7.89252e+15
8.25031e+15
8.74598e+15
8.97581e+15
9.52968e+15
9.92091e+15
1.0149e+16
1.05001e+16
1.07676e+16
1.12037e+16
1.14968e+16
1.1672e+16
1.21011e+16
1.22739e+16
1.23782e+16
1.28101e+16
1.28728e+16
1.29773e+16
1.33142e+16
1.33111e+16
1.33822e+16
1.35554e+16
1.36604e+16
1.37421e+16
1.37018e+16
1.37426e+16
1.36989e+16
1.38162e+16
1.37783e+16
1.35595e+16
1.35748e+16
1.35194e+16
1.33763e+16
1.31952e+16
1.31787e+16
1.28959e+16
1.26614e+16
1.24638e+16
1.22028e+16
1.19109e+16
1.16758e+16
1.14223e+16
1.11483e+16
1.07626e+16
1.05199e+16
1.00551e+16
9.69613e+15
9.42543e+15
8.91247e+15
8.5743e+15
8.14358e+15
7.81312e+15
7.2964e+15
6.87059e+15
6.41602e+15
5.89196e+15
5.58815e+15
5.04927e+15
4.47887e+15
4.02778e+15
3.55146e+15
3.03256e+15
2.48944e+15
1.92143e+15
1.39581e+15
8.34273e+14
9.053e+14
1.48109e+15
2.06831e+15
2.63466e+15
3.22151e+15
3.77062e+15
4.25832e+15
4.76005e+15
5.21609e+15
5.76225e+15
6.36589e+15
6.71024e+15
7.28613e+15
7.76772e+15
8.1916e+15
8.60517e+15
9.13235e+15
9.47675e+15
9.9016e+15
1.03486e+16
1.06843e+16
1.10829e+16
1.14745e+16
1.1676e+16
1.19572e+16
1.23528e+16
1.26227e+16
1.30156e+16
1.30747e+16
1.34139e+16
1.36086e+16
1.37847e+16
1.39403e+16
1.39671e+16
1.40927e+16
1.41431e+16
1.44323e+16
1.44693e+16
1.44974e+16
1.44985e+16
1.46046e+16
1.44511e+16
1.44751e+16
1.42288e+16
1.4242e+16
1.41518e+16
1.40213e+16
1.38326e+16
1.38473e+16
1.35057e+16
1.33505e+16
1.29962e+16
1.29176e+16
1.26644e+16
1.23574e+16
1.20947e+16
1.16916e+16
1.12401e+16
1.08892e+16
1.05567e+16
1.03922e+16
9.78084e+15
9.3953e+15
9.02209e+15
8.5671e+15
8.12872e+15
7.72772e+15
7.12042e+15
6.78867e+15
6.35511e+15
5.85953e+15
5.25824e+15
4.714e+15
4.19336e+15
3.69533e+15
3.12904e+15
2.58384e+15
2.03455e+15
1.46401e+15
8.89133e+14
9.45492e+14
1.56497e+15
2.16572e+15
2.78325e+15
3.30319e+15
3.89543e+15
4.38245e+15
4.89769e+15
5.46647e+15
6.15238e+15
6.63402e+15
7.00401e+15
7.62205e+15
8.17757e+15
8.67181e+15
9.09318e+15
9.55523e+15
1.00098e+16
1.0401e+16
1.07847e+16
1.13141e+16
1.15554e+16
1.1934e+16
1.22523e+16
1.26817e+16
1.29512e+16
1.32669e+16
1.35533e+16
1.37337e+16
1.42164e+16
1.41735e+16
1.44166e+16
1.45455e+16
1.45292e+16
1.47354e+16
1.48195e+16
1.50217e+16
1.5024e+16
1.51409e+16
1.51641e+16
1.51064e+16
1.5176e+16
1.50891e+16
1.49814e+16
1.49014e+16
1.46616e+16
1.47626e+16
1.45693e+16
1.44042e+16
1.4136e+16
1.38508e+16
1.37264e+16
1.34711e+16
1.31589e+16
1.29458e+16
1.25545e+16
1.2246e+16
1.18056e+16
1.14896e+16
1.11467e+16
1.07403e+16
1.0235e+16
9.85464e+15
9.50257e+15
9.0541e+15
8.45139e+15
7.98484e+15
7.60604e+15
7.05277e+15
6.59086e+15
6.12697e+15
5.47903e+15
4.99002e+15
4.49603e+15
3.84122e+15
3.27733e+15
2.64765e+15
2.13855e+15
1.55611e+15
9.44267e+14
1.02104e+15
1.68762e+15
2.23729e+15
2.88296e+15
3.38118e+15
4.08104e+15
4.67891e+15
5.13601e+15
5.86971e+15
6.38033e+15
6.79386e+15
7.41221e+15
7.86775e+15
8.54582e+15
9.08777e+15
9.49322e+15
1.0042e+16
1.04705e+16
1.08393e+16
1.13128e+16
1.16195e+16
1.20342e+16
1.23404e+16
1.29805e+16
1.33109e+16
1.34841e+16
1.37361e+16
1.40549e+16
1.42785e+16
1.46334e+16
1.47575e+16
1.5015e+16
1.51238e+16
1.53607e+16
1.54121e+16
1.55276e+16
1.56368e+16
1.58116e+16
1.56598e+16
1.57779e+16
1.57334e+16
1.56506e+16
1.58541e+16
1.55623e+16
1.56176e+16
1.54348e+16
1.5468e+16
1.52834e+16
1.50407e+16
1.47021e+16
1.44746e+16
1.43033e+16
1.4144e+16
1.38128e+16
1.34159e+16
1.32007e+16
1.27248e+16
1.2407e+16
1.19545e+16
1.16754e+16
1.11483e+16
1.06839e+16
1.01872e+16
9.9704e+15
9.47418e+15
8.92251e+15
8.44689e+15
7.99746e+15
7.34153e+15
6.86642e+15
6.33887e+15
5.73377e+15
5.16623e+15
4.64121e+15
4.04372e+15
3.4058e+15
2.84021e+15
2.22573e+15
1.59262e+15
9.84533e+14
1.01202e+15
1.74543e+15
2.43955e+15
2.95873e+15
3.56976e+15
4.26726e+15
4.81683e+15
5.45394e+15
6.00979e+15
6.61865e+15
7.11267e+15
7.69337e+15
8.31205e+15
8.84028e+15
9.40135e+15
9.90949e+15
1.04806e+16
1.09239e+16
1.14109e+16
1.18514e+16
1.21862e+16
1.25845e+16
1.28204e+16
1.3402e+16
1.37931e+16
1.40328e+16
1.43463e+16
1.4631e+16
1.48591e+16
1.52411e+16
1.54528e+16
1.57043e+16
1.57791e+16
1.58135e+16
1.60545e+16
1.62425e+16
1.63968e+16
1.63134e+16
1.64235e+16
1.64044e+16
1.63361e+16
1.64238e+16
1.6443e+16
1.63852e+16
1.6299e+16
1.6073e+16
1.59431e+16
1.57104e+16
1.55548e+16
1.53211e+16
1.52328e+16
1.49417e+16
1.47366e+16
1.43982e+16
1.39751e+16
1.37586e+16
1.33116e+16
1.30184e+16
1.25292e+16
1.21568e+16
1.17725e+16
1.1289e+16
1.07646e+16
1.03294e+16
9.92573e+15
9.36053e+15
8.87729e+15
8.30778e+15
7.70479e+15
7.16064e+15
6.69896e+15
5.93704e+15
5.40377e+15
4.74019e+15
4.18988e+15
3.55956e+15
2.96721e+15
2.31735e+15
1.66938e+15
1.03916e+15
1.0843e+15
1.84833e+15
2.47048e+15
3.06829e+15
3.809e+15
4.43874e+15
5.0218e+15
5.64241e+15
6.1416e+15
6.82353e+15
7.36488e+15
7.96113e+15
8.63017e+15
9.1418e+15
9.76176e+15
1.03735e+16
1.08318e+16
1.14075e+16
1.18195e+16
1.21967e+16
1.2656e+16
1.30798e+16
1.3492e+16
1.38589e+16
1.43095e+16
1.47872e+16
1.49353e+16
1.52067e+16
1.55253e+16
1.58774e+16
1.60773e+16
1.61778e+16
1.65229e+16
1.67451e+16
1.67411e+16
1.69638e+16
1.6962e+16
1.71382e+16
1.70928e+16
1.70869e+16
1.70289e+16
1.70777e+16
1.7055e+16
1.71465e+16
1.6839e+16
1.68334e+16
1.65106e+16
1.63146e+16
1.61606e+16
1.60618e+16
1.58794e+16
1.54681e+16
1.51096e+16
1.48419e+16
1.45214e+16
1.4141e+16
1.37128e+16
1.3396e+16
1.29636e+16
1.25862e+16
1.21747e+16
1.17295e+16
1.11077e+16
1.08057e+16
1.02121e+16
9.66517e+15
9.11396e+15
8.63553e+15
7.96301e+15
7.49179e+15
6.88692e+15
6.18669e+15
5.63342e+15
4.96493e+15
4.39022e+15
3.70244e+15
3.01509e+15
2.38659e+15
1.76603e+15
1.0917e+15
1.13262e+15
1.89968e+15
2.60284e+15
3.2902e+15
3.89734e+15
4.60832e+15
5.19875e+15
5.80885e+15
6.44546e+15
7.20509e+15
7.72635e+15
8.42488e+15
9.02544e+15
9.48854e+15
1.01196e+16
1.05712e+16
1.1206e+16
1.17473e+16
1.22181e+16
1.26307e+16
1.31392e+16
1.36044e+16
1.40847e+16
1.45084e+16
1.48104e+16
1.51828e+16
1.56467e+16
1.58215e+16
1.60251e+16
1.6215e+16
1.66956e+16
1.68014e+16
1.69713e+16
1.72703e+16
1.74441e+16
1.7562e+16
1.75464e+16
1.7731e+16
1.77152e+16
1.78637e+16
1.77567e+16
1.76849e+16
1.75406e+16
1.76354e+16
1.74933e+16
1.73988e+16
1.71182e+16
1.68619e+16
1.68891e+16
1.65698e+16
1.63618e+16
1.60631e+16
1.58318e+16
1.53466e+16
1.51071e+16
1.48064e+16
1.4187e+16
1.38105e+16
1.35617e+16
1.30755e+16
1.2637e+16
1.22037e+16
1.15695e+16
1.1243e+16
1.07135e+16
1.00948e+16
9.46561e+15
8.90742e+15
8.35236e+15
7.69002e+15
7.05084e+15
6.48197e+15
5.93049e+15
5.15793e+15
4.62236e+15
3.85465e+15
3.18192e+15
2.51571e+15
1.8302e+15
1.05978e+15
1.17275e+15
1.91784e+15
2.68751e+15
3.32535e+15
4.03404e+15
4.75748e+15
5.45197e+15
6.08858e+15
6.74308e+15
7.38602e+15
7.96352e+15
8.62155e+15
9.23486e+15
9.87207e+15
1.04865e+16
1.11101e+16
1.16705e+16
1.20142e+16
1.25994e+16
1.31218e+16
1.36722e+16
1.40725e+16
1.45293e+16
1.49763e+16
1.52706e+16
1.56306e+16
1.60389e+16
1.63701e+16
1.65452e+16
1.69375e+16
1.71457e+16
1.73657e+16
1.76121e+16
1.78334e+16
1.80216e+16
1.82817e+16
1.82665e+16
1.8298e+16
1.83503e+16
1.82704e+16
1.8301e+16
1.83777e+16
1.84323e+16
1.82925e+16
1.82499e+16
1.81836e+16
1.77893e+16
1.75384e+16
1.73694e+16
1.7094e+16
1.69266e+16
1.67013e+16
1.63675e+16
1.60645e+16
1.55808e+16
1.54223e+16
1.48495e+16
1.44406e+16
1.39889e+16
1.35274e+16
1.29919e+16
1.26984e+16
1.20212e+16
1.15399e+16
1.09743e+16
1.04869e+16
9.83432e+15
9.20638e+15
8.59903e+15
8.00278e+15
7.34566e+15
6.69992e+15
5.95778e+15
5.30713e+15
4.69726e+15
3.94845e+15
3.3142e+15
2.60412e+15
1.89136e+15
1.09875e+15
1.20295e+15
1.98039e+15
2.73082e+15
3.4774e+15
4.1854e+15
4.90842e+15
5.60204e+15
6.31511e+15
6.89939e+15
7.6032e+15
8.36374e+15
8.97338e+15
9.59343e+15
1.01899e+16
1.08045e+16
1.13723e+16
1.19461e+16
1.23546e+16
1.31032e+16
1.35264e+16
1.38357e+16
1.44555e+16
1.49005e+16
1.53206e+16
1.57798e+16
1.61554e+16
1.66159e+16
1.69212e+16
1.71958e+16
1.74337e+16
1.78265e+16
1.81826e+16
1.83002e+16
1.83807e+16
1.86998e+16
1.86798e+16
1.89211e+16
1.90175e+16
1.90417e+16
1.91321e+16
1.90321e+16
1.90605e+16
1.88839e+16
1.90086e+16
1.8847e+16
1.85976e+16
1.84619e+16
1.82446e+16
1.81356e+16
1.78635e+16
1.75057e+16
1.72424e+16
1.69038e+16
1.64968e+16
1.62264e+16
1.58256e+16
1.54099e+16
1.48229e+16
1.44342e+16
1.38965e+16
1.32809e+16
1.2949e+16
1.24184e+16
1.19122e+16
1.13836e+16
1.08143e+16
1.02839e+16
9.60476e+15
9.02002e+15
8.27058e+15
7.58907e+15
6.94278e+15
6.12991e+15
5.55888e+15
4.82311e+15
4.09717e+15
3.38551e+15
2.68352e+15
1.95787e+15
1.16303e+15
1.24425e+15
2.0105e+15
2.82041e+15
3.61366e+15
4.33376e+15
5.00272e+15
5.73299e+15
6.44817e+15
7.2221e+15
7.78304e+15
8.46877e+15
9.18592e+15
9.81331e+15
1.05147e+16
1.11714e+16
1.16686e+16
1.23046e+16
1.28009e+16
1.33196e+16
1.39415e+16
1.45086e+16
1.49036e+16
1.54453e+16
1.58411e+16
1.64459e+16
1.66493e+16
1.71031e+16
1.74324e+16
1.76435e+16
1.79806e+16
1.82692e+16
1.8519e+16
1.88673e+16
1.91026e+16
1.90206e+16
1.93433e+16
1.93493e+16
1.96482e+16
1.96337e+16
1.96501e+16
1.96811e+16
1.96715e+16
1.9555e+16
1.94753e+16
1.95133e+16
1.94499e+16
1.89087e+16
1.89424e+16
1.85906e+16
1.84312e+16
1.80861e+16
1.78998e+16
1.74033e+16
1.69932e+16
1.66512e+16
1.63023e+16
1.58527e+16
1.54164e+16
1.49421e+16
1.44098e+16
1.39041e+16
1.34136e+16
1.28722e+16
1.21831e+16
1.16526e+16
1.10751e+16
1.04548e+16
9.8429e+15
9.13574e+15
8.43492e+15
7.66035e+15
7.18192e+15
6.39542e+15
5.70497e+15
4.97878e+15
4.27238e+15
3.54521e+15
2.77653e+15
1.98128e+15
1.20563e+15
1.26774e+15
2.07612e+15
2.88332e+15
3.70484e+15
4.44071e+15
5.13495e+15
5.92136e+15
6.65571e+15
7.40258e+15
8.10524e+15
8.88009e+15
9.4479e+15
1.0222e+16
1.07776e+16
1.13287e+16
1.20625e+16
1.25802e+16
1.3242e+16
1.37512e+16
1.44255e+16
1.49128e+16
1.52816e+16
1.5811e+16
1.63876e+16
1.6719e+16
1.72631e+16
1.77186e+16
1.79391e+16
1.83324e+16
1.85265e+16
1.89112e+16
1.93211e+16
1.94536e+16
1.96098e+16
1.96202e+16
1.99198e+16
2.0062e+16
2.00499e+16
2.00693e+16
2.03364e+16
2.03901e+16
2.01956e+16
2.01011e+16
2.02749e+16
2.00701e+16
1.9929e+16
1.93556e+16
1.94127e+16
1.92838e+16
1.8973e+16
1.86435e+16
1.83996e+16
1.79822e+16
1.75636e+16
1.70761e+16
1.68226e+16
1.63262e+16
1.58145e+16
1.5359e+16
1.49185e+16
1.43577e+16
1.37053e+16
1.31939e+16
1.26129e+16
1.1928e+16
1.15068e+16
1.09178e+16
1.0058e+16
9.42222e+15
8.74424e+15
8.02103e+15
7.33011e+15
6.6125e+15
5.82357e+15
5.16609e+15
4.365e+15
3.64344e+15
2.8191e+15
2.03902e+15
1.21239e+15
1.29856e+15
2.14512e+15
2.99028e+15
3.79547e+15
4.54985e+15
5.31048e+15
6.13271e+15
6.91517e+15
7.56687e+15
8.43198e+15
9.11318e+15
9.72112e+15
1.04456e+16
1.10888e+16
1.16937e+16
1.23825e+16
1.29624e+16
1.3487e+16
1.41886e+16
1.47405e+16
1.52657e+16
1.57662e+16
1.631e+16
1.69616e+16
1.72571e+16
1.75802e+16
1.81609e+16
1.84242e+16
1.87062e+16
1.90541e+16
1.93366e+16
1.95592e+16
1.99336e+16
2.00847e+16
2.04018e+16
2.05385e+16
2.07561e+16
2.07609e+16
2.07774e+16
2.09819e+16
2.096e+16
2.07925e+16
2.08142e+16
2.072e+16
2.04694e+16
2.02929e+16
2.01851e+16
1.9926e+16
1.98238e+16
1.94568e+16
1.92724e+16
1.88059e+16
1.84237e+16
1.81289e+16
1.77372e+16
1.71257e+16
1.68141e+16
1.63456e+16
1.58522e+16
1.53797e+16
1.46823e+16
1.41331e+16
1.36505e+16
1.30043e+16
1.24566e+16
1.17656e+16
1.096e+16
1.04021e+16
9.64196e+15
8.91449e+15
8.21811e+15
7.58967e+15
6.80491e+15
6.1e+15
5.37804e+15
4.46933e+15
3.76246e+15
2.98092e+15
2.14686e+15
1.2567e+15
1.32195e+15
2.21466e+15
3.1322e+15
3.8846e+15
4.7118e+15
5.55783e+15
6.30351e+15
7.19018e+15
7.86789e+15
8.56949e+15
9.35177e+15
1.00383e+16
1.08405e+16
1.13257e+16
1.20553e+16
1.2763e+16
1.33255e+16
1.39604e+16
1.45662e+16
1.51262e+16
1.57048e+16
1.62152e+16
1.69132e+16
1.72807e+16
1.76949e+16
1.81781e+16
1.8749e+16
1.89376e+16
1.91804e+16
1.97611e+16
1.99697e+16
2.02481e+16
2.04855e+16
2.07217e+16
2.09703e+16
2.12786e+16
2.13745e+16
2.13491e+16
2.13424e+16
2.12683e+16
2.14245e+16
2.14772e+16
2.13562e+16
2.11522e+16
2.10109e+16
2.08607e+16
2.07013e+16
2.0599e+16
2.02332e+16
1.9955e+16
1.95565e+16
1.93153e+16
1.89247e+16
1.85397e+16
1.82261e+16
1.77759e+16
1.72155e+16
1.66966e+16
1.62157e+16
1.56386e+16
1.51411e+16
1.45773e+16
1.4028e+16
1.34781e+16
1.27357e+16
1.21008e+16
1.13363e+16
1.06762e+16
9.81515e+15
9.10868e+15
8.36484e+15
7.75437e+15
7.05676e+15
6.25448e+15
5.45578e+15
4.63323e+15
3.8915e+15
3.04009e+15
2.17843e+15
1.29706e+15
1.34134e+15
2.30699e+15
3.16939e+15
4.03853e+15
4.86838e+15
5.61865e+15
6.42776e+15
7.30347e+15
8.03231e+15
8.77253e+15
9.53225e+15
1.04175e+16
1.10424e+16
1.17251e+16
1.24639e+16
1.30726e+16
1.3686e+16
1.43045e+16
1.49272e+16
1.5571e+16
1.59904e+16
1.667e+16
1.70932e+16
1.77486e+16
1.81533e+16
1.85158e+16
1.9068e+16
1.94118e+16
1.98746e+16
2.02404e+16
2.06308e+16
2.07731e+16
2.09562e+16
2.14542e+16
2.14646e+16
2.16948e+16
2.17579e+16
2.18527e+16
2.19071e+16
2.17338e+16
2.19443e+16
2.17737e+16
2.17817e+16
2.17308e+16
2.16221e+16
2.14783e+16
2.11287e+16
2.08877e+16
2.07981e+16
2.04806e+16
2.02604e+16
1.98142e+16
1.94685e+16
1.90284e+16
1.86675e+16
1.81549e+16
1.75449e+16
1.7041e+16
1.66398e+16
1.60715e+16
1.55406e+16
1.47998e+16
1.42941e+16