/*--------------------------------*- C++ -*----------------------------------*\
  =========                 |
  \\      /  F ield         | OpenFOAM: The Open Source CFD Toolbox
   \\    /   O peration     | Website:  https://openfoam.org
    \\  /    A nd           | Version:  6
     \\/     M anipulation  |
\*---------------------------------------------------------------------------*/
FoamFile
{
    version     2.0;
    format      ascii;
    class       volScalarField;
    location    "600";
    object      dnp8;
}
// * * * * * * * * * * * * * * * * * * * * * * * * * * * * * * * * * * * * * //

dimensions      [0 -3 0 0 0 0 0];

internalField   nonuniform List<scalar> 
6400
(
5.6418e+12
9.74829e+12
1.3393e+13
1.70983e+13
2.13857e+13
2.49997e+13
2.77691e+13
3.18239e+13
3.52803e+13
3.88254e+13
4.13929e+13
4.6228e+13
4.84488e+13
5.08888e+13
5.51295e+13
5.79438e+13
6.21989e+13
6.31948e+13
6.71335e+13
6.86155e+13
7.27744e+13
7.43635e+13
7.45413e+13
7.66037e+13
8.00408e+13
8.03028e+13
8.31482e+13
8.39658e+13
8.66288e+13
8.82388e+13
9.32162e+13
9.0151e+13
9.2227e+13
9.3041e+13
9.46425e+13
9.26396e+13
9.61045e+13
9.43053e+13
9.47705e+13
9.34895e+13
9.7398e+13
9.44363e+13
9.64272e+13
9.30292e+13
9.22946e+13
9.17177e+13
9.29379e+13
9.1809e+13
8.87987e+13
9.04408e+13
8.72772e+13
8.92001e+13
8.47595e+13
8.30236e+13
8.06068e+13
7.89894e+13
7.65952e+13
7.53238e+13
7.19804e+13
6.96016e+13
6.67288e+13
6.44459e+13
6.17366e+13
5.88471e+13
5.69278e+13
5.31439e+13
5.15942e+13
4.66021e+13
4.56391e+13
4.17859e+13
3.85503e+13
3.50307e+13
3.07884e+13
2.80741e+13
2.44028e+13
2.22746e+13
1.75811e+13
1.38374e+13
1.06913e+13
5.70064e+12
9.8934e+12
1.68964e+13
2.44944e+13
3.20157e+13
3.77754e+13
4.45568e+13
4.9506e+13
5.64985e+13
6.45086e+13
6.76969e+13
7.35793e+13
8.01159e+13
8.78354e+13
9.01655e+13
9.74396e+13
1.04782e+14
1.08934e+14
1.14111e+14
1.17226e+14
1.22521e+14
1.25737e+14
1.3223e+14
1.32744e+14
1.36318e+14
1.42682e+14
1.44701e+14
1.4869e+14
1.50602e+14
1.57333e+14
1.56475e+14
1.60269e+14
1.59448e+14
1.67043e+14
1.63126e+14
1.65941e+14
1.6651e+14
1.68979e+14
1.68884e+14
1.71071e+14
1.70167e+14
1.72204e+14
1.72617e+14
1.71379e+14
1.68246e+14
1.65306e+14
1.64231e+14
1.66206e+14
1.61611e+14
1.61387e+14
1.60068e+14
1.58295e+14
1.56463e+14
1.53857e+14
1.48896e+14
1.44299e+14
1.40355e+14
1.36575e+14
1.33073e+14
1.30776e+14
1.24568e+14
1.19241e+14
1.14952e+14
1.09851e+14
1.03576e+14
1.01707e+14
9.7123e+13
9.07289e+13
8.47233e+13
7.89394e+13
7.59102e+13
6.91032e+13
6.22564e+13
5.47426e+13
4.97072e+13
4.4236e+13
3.7321e+13
3.1096e+13
2.4109e+13
1.93959e+13
9.74943e+12
1.35185e+13
2.36012e+13
3.24473e+13
4.31813e+13
4.96188e+13
5.82519e+13
6.63463e+13
7.53247e+13
8.51739e+13
9.03015e+13
9.74437e+13
1.05628e+14
1.15498e+14
1.20829e+14
1.31995e+14
1.39658e+14
1.44546e+14
1.50665e+14
1.57788e+14
1.6505e+14
1.68261e+14
1.77389e+14
1.77298e+14
1.82993e+14
1.90585e+14
1.94637e+14
1.99651e+14
2.07885e+14
2.08857e+14
2.08894e+14
2.13207e+14
2.18254e+14
2.19846e+14
2.21274e+14
2.23344e+14
2.26025e+14
2.27896e+14
2.28525e+14
2.23788e+14
2.25737e+14
2.25363e+14
2.28127e+14
2.27695e+14
2.26813e+14
2.22433e+14
2.19437e+14
2.19616e+14
2.16565e+14
2.1368e+14
2.13303e+14
2.11885e+14
2.07569e+14
2.049e+14
1.99009e+14
1.93153e+14
1.88526e+14
1.81207e+14
1.79838e+14
1.75224e+14
1.67896e+14
1.58634e+14
1.555e+14
1.48536e+14
1.38661e+14
1.34493e+14
1.29543e+14
1.20952e+14
1.13828e+14
1.04953e+14
1.00996e+14
9.35396e+13
8.56667e+13
7.41723e+13
6.96623e+13
5.93071e+13
5.02594e+13
4.30923e+13
3.28195e+13
2.47496e+13
1.35992e+13
1.65136e+13
2.92026e+13
4.17678e+13
5.34944e+13
6.36193e+13
7.36617e+13
8.39265e+13
9.38068e+13
1.07058e+14
1.15466e+14
1.23125e+14
1.33403e+14
1.40866e+14
1.54243e+14
1.62674e+14
1.71799e+14
1.79874e+14
1.87222e+14
1.97824e+14
2.03437e+14
2.138e+14
2.19762e+14
2.22727e+14
2.31304e+14
2.3761e+14
2.45406e+14
2.4418e+14
2.51938e+14
2.57832e+14
2.59724e+14
2.68068e+14
2.69925e+14
2.70658e+14
2.76283e+14
2.76995e+14
2.79884e+14
2.82857e+14
2.84031e+14
2.81011e+14
2.81326e+14
2.82988e+14
2.84984e+14
2.82913e+14
2.77278e+14
2.76326e+14
2.72419e+14
2.70334e+14
2.70837e+14
2.68078e+14
2.64557e+14
2.61738e+14
2.57592e+14
2.53222e+14
2.47294e+14
2.41413e+14
2.35521e+14
2.29799e+14
2.22335e+14
2.15175e+14
2.09691e+14
1.99732e+14
1.91905e+14
1.82728e+14
1.74683e+14
1.69103e+14
1.59275e+14
1.50843e+14
1.44378e+14
1.32502e+14
1.24414e+14
1.15559e+14
1.05569e+14
9.44379e+13
8.47225e+13
7.45154e+13
6.25762e+13
5.3145e+13
4.15057e+13
2.92922e+13
1.66855e+13
1.96249e+13
3.7523e+13
4.89564e+13
6.29397e+13
7.48887e+13
8.88817e+13
1.00823e+14
1.13334e+14
1.25616e+14
1.38083e+14
1.49934e+14
1.58149e+14
1.68459e+14
1.84081e+14
1.96952e+14
2.06272e+14
2.16478e+14
2.25801e+14
2.3243e+14
2.43015e+14
2.50659e+14
2.598e+14
2.67462e+14
2.76051e+14
2.85427e+14
2.92735e+14
2.96766e+14
3.02452e+14
3.07311e+14
3.1448e+14
3.15852e+14
3.18373e+14
3.24637e+14
3.2362e+14
3.29331e+14
3.31262e+14
3.34678e+14
3.41747e+14
3.40831e+14
3.42221e+14
3.39842e+14
3.4137e+14
3.39738e+14
3.34129e+14
3.26858e+14
3.29526e+14
3.28228e+14
3.22787e+14
3.24214e+14
3.16618e+14
3.13898e+14
3.03637e+14
3.01763e+14
3.02538e+14
2.9298e+14
2.84837e+14
2.77712e+14
2.67092e+14
2.57875e+14
2.51861e+14
2.42021e+14
2.27636e+14
2.186e+14
2.0877e+14
2.00678e+14
1.91267e+14
1.82279e+14
1.74379e+14
1.58426e+14
1.48961e+14
1.3604e+14
1.23426e+14
1.13784e+14
9.87261e+13
8.56204e+13
7.46589e+13
6.26919e+13
5.01159e+13
3.44583e+13
1.94153e+13
2.33257e+13
4.27488e+13
5.85815e+13
7.46374e+13
8.65129e+13
1.01915e+14
1.16545e+14
1.32395e+14
1.45855e+14
1.59748e+14
1.72463e+14
1.84047e+14
1.97834e+14
2.14534e+14
2.27744e+14
2.35461e+14
2.50295e+14
2.59237e+14
2.68393e+14
2.84179e+14
2.95053e+14
3.02988e+14
3.09635e+14
3.20496e+14
3.29159e+14
3.39372e+14
3.45064e+14
3.51887e+14
3.57945e+14
3.65058e+14
3.64709e+14
3.71284e+14
3.78816e+14
3.82007e+14
3.86169e+14
3.89131e+14
3.93315e+14
3.98669e+14
4.01541e+14
3.93911e+14
3.9642e+14
3.96489e+14
3.91893e+14
3.91641e+14
3.8815e+14
3.87949e+14
3.83118e+14
3.78888e+14
3.75985e+14
3.69808e+14
3.64967e+14
3.57413e+14
3.49922e+14
3.46036e+14
3.384e+14
3.31756e+14
3.23701e+14
3.10981e+14
3.00486e+14
2.94539e+14
2.84477e+14
2.6927e+14
2.58832e+14
2.43623e+14
2.34001e+14
2.23958e+14
2.14437e+14
1.99105e+14
1.84687e+14
1.73318e+14
1.58427e+14
1.43639e+14
1.29917e+14
1.14543e+14
9.95435e+13
8.75758e+13
7.30589e+13
5.85315e+13
4.0315e+13
2.31477e+13
2.60696e+13
4.72574e+13
6.6736e+13
8.44863e+13
9.82211e+13
1.15166e+14
1.31874e+14
1.49283e+14
1.64731e+14
1.82512e+14
1.95792e+14
2.10446e+14
2.26705e+14
2.41451e+14
2.54045e+14
2.69814e+14
2.80169e+14
2.96449e+14
3.11888e+14
3.24266e+14
3.3322e+14
3.45791e+14
3.52188e+14
3.60423e+14
3.72347e+14
3.86226e+14
3.99306e+14
4.03275e+14
4.03193e+14
4.15577e+14
4.20795e+14
4.25772e+14
4.29944e+14
4.33362e+14
4.40358e+14
4.43653e+14
4.524e+14
4.52023e+14
4.48274e+14
4.50438e+14
4.51649e+14
4.52558e+14
4.50051e+14
4.50073e+14
4.42872e+14
4.40484e+14
4.40199e+14
4.35922e+14
4.28565e+14
4.21894e+14
4.13319e+14
4.08077e+14
4.07439e+14
3.90822e+14
3.8224e+14
3.81963e+14
3.71467e+14
3.55941e+14
3.41094e+14
3.36608e+14
3.2549e+14
3.1076e+14
2.93685e+14
2.79121e+14
2.67401e+14
2.53507e+14
2.4741e+14
2.30357e+14
2.11543e+14
1.99188e+14
1.79703e+14
1.6407e+14
1.48111e+14
1.31288e+14
1.12662e+14
9.86965e+13
8.07996e+13
6.74519e+13
4.84554e+13
2.76055e+13
2.92769e+13
5.40414e+13
7.58174e+13
9.47506e+13
1.11537e+14
1.31292e+14
1.5002e+14
1.65645e+14
1.86659e+14
2.04564e+14
2.19778e+14
2.36744e+14
2.5695e+14
2.69001e+14
2.85404e+14
3.03596e+14
3.1912e+14
3.34963e+14
3.46852e+14
3.62409e+14
3.72246e+14
3.84478e+14
3.98197e+14
4.08101e+14
4.19107e+14
4.30092e+14
4.45278e+14
4.45745e+14
4.62305e+14
4.71068e+14
4.70967e+14
4.76242e+14
4.81575e+14
4.87005e+14
4.94485e+14
4.94738e+14
5.0307e+14
5.06877e+14
5.08586e+14
5.08499e+14
5.09038e+14
5.0567e+14
5.03777e+14
5.0936e+14
4.97768e+14
4.89988e+14
4.93344e+14
4.86392e+14
4.81968e+14
4.70174e+14
4.66791e+14
4.62032e+14
4.47393e+14
4.38711e+14
4.29346e+14
4.23183e+14
4.13584e+14
4.05785e+14
3.89957e+14
3.73003e+14
3.59921e+14
3.44611e+14
3.29232e+14
3.11483e+14
3.01184e+14
2.86017e+14
2.72355e+14
2.57957e+14
2.41803e+14
2.21781e+14
2.02936e+14
1.84042e+14
1.67461e+14
1.46147e+14
1.28968e+14
1.09747e+14
9.07474e+13
7.55686e+13
5.48095e+13
3.02606e+13
3.19043e+13
5.881e+13
8.47368e+13
1.05312e+14
1.26724e+14
1.43364e+14
1.66278e+14
1.86697e+14
2.04813e+14
2.25406e+14
2.4684e+14
2.59811e+14
2.82964e+14
3.0477e+14
3.22811e+14
3.30724e+14
3.51434e+14
3.75851e+14
3.86528e+14
4.00783e+14
4.1609e+14
4.26962e+14
4.37049e+14
4.5603e+14
4.64232e+14
4.77028e+14
4.91727e+14
4.96488e+14
5.06237e+14
5.16316e+14
5.26066e+14
5.31564e+14
5.4319e+14
5.4491e+14
5.47063e+14
5.52127e+14
5.58917e+14
5.64156e+14
5.6701e+14
5.65497e+14
5.63949e+14
5.62923e+14
5.56792e+14
5.55248e+14
5.52104e+14
5.43288e+14
5.40974e+14
5.34304e+14
5.33666e+14
5.25953e+14
5.15767e+14
5.05798e+14
4.95392e+14
4.89038e+14
4.77723e+14
4.69473e+14
4.59888e+14
4.46511e+14
4.28421e+14
4.15969e+14
3.95836e+14
3.86533e+14
3.7007e+14
3.50994e+14
3.29074e+14
3.14516e+14
3.01862e+14
2.81884e+14
2.64711e+14
2.43786e+14
2.27317e+14
2.082e+14
1.8474e+14
1.62282e+14
1.42724e+14
1.22926e+14
1.01427e+14
8.24525e+13
5.83551e+13
3.35837e+13
3.56222e+13
6.27859e+13
9.07017e+13
1.14553e+14
1.38315e+14
1.58713e+14
1.82034e+14
2.02201e+14
2.25571e+14
2.48507e+14
2.7282e+14
2.89583e+14
3.06063e+14
3.32478e+14
3.52364e+14
3.70227e+14
3.89484e+14
4.08283e+14
4.25251e+14
4.42171e+14
4.60378e+14
4.70003e+14
4.84806e+14
5.02044e+14
5.16175e+14
5.3198e+14
5.41577e+14
5.51928e+14
5.62981e+14
5.70881e+14
5.80837e+14
5.87853e+14
5.96022e+14
5.99178e+14
6.07721e+14
6.06718e+14
6.14518e+14
6.14974e+14
6.14926e+14
6.2027e+14
6.23325e+14
6.18102e+14
6.16669e+14
6.10756e+14
6.08246e+14
5.99947e+14
5.96193e+14
5.89583e+14
5.8558e+14
5.77727e+14
5.70388e+14
5.60112e+14
5.50083e+14
5.39946e+14
5.25187e+14
5.20558e+14
5.01432e+14
4.8303e+14
4.72451e+14
4.55359e+14
4.36185e+14
4.15327e+14
3.97463e+14
3.80794e+14
3.65384e+14
3.51081e+14
3.30415e+14
3.10674e+14
2.84816e+14
2.68147e+14
2.47943e+14
2.2498e+14
1.9719e+14
1.76989e+14
1.54868e+14
1.34633e+14
1.10951e+14
8.82059e+13
6.48859e+13
3.54969e+13
4.01342e+13
6.88059e+13
9.80333e+13
1.23298e+14
1.46018e+14
1.72534e+14
1.97831e+14
2.19687e+14
2.4703e+14
2.71126e+14
3.00768e+14
3.15823e+14
3.30849e+14
3.57429e+14
3.81044e+14
4.00489e+14
4.22329e+14
4.41497e+14
4.62339e+14
4.85189e+14
5.01267e+14
5.18201e+14
5.282e+14
5.36805e+14
5.5848e+14
5.76201e+14
5.91509e+14
5.98439e+14
6.1481e+14
6.19998e+14
6.28263e+14
6.3422e+14
6.43308e+14
6.53073e+14
6.61607e+14
6.63964e+14
6.67633e+14
6.74951e+14
6.71937e+14
6.83922e+14
6.79213e+14
6.74611e+14
6.76011e+14
6.66983e+14
6.61795e+14
6.50983e+14
6.52353e+14
6.4594e+14
6.37669e+14
6.31489e+14
6.23616e+14
6.09087e+14
5.96958e+14
5.85441e+14
5.75551e+14
5.63078e+14
5.38328e+14
5.29375e+14
5.12398e+14
4.96386e+14
4.79657e+14
4.53501e+14
4.38279e+14
4.17082e+14
3.99053e+14
3.84593e+14
3.59167e+14
3.33966e+14
3.14838e+14
2.89914e+14
2.68874e+14
2.43839e+14
2.17256e+14
1.94165e+14
1.70636e+14
1.46492e+14
1.18914e+14
9.63073e+13
6.95098e+13
3.83046e+13
4.53909e+13
7.57386e+13
1.04314e+14
1.33387e+14
1.60029e+14
1.85658e+14
2.13563e+14
2.37832e+14
2.6184e+14
2.90218e+14
3.18164e+14
3.4138e+14
3.57735e+14
3.8434e+14
4.09469e+14
4.36229e+14
4.61076e+14
4.79853e+14
5.00676e+14
5.20599e+14
5.38217e+14
5.61647e+14
5.68042e+14
5.88419e+14
6.08756e+14
6.22907e+14
6.38905e+14
6.47911e+14
6.5583e+14
6.7341e+14
6.84887e+14
6.94457e+14
7.06522e+14
7.09409e+14
7.11781e+14
7.1877e+14
7.30554e+14
7.29171e+14
7.2329e+14
7.305e+14
7.31286e+14
7.34138e+14
7.27447e+14
7.20458e+14
7.12586e+14
7.10777e+14
7.0393e+14
6.94609e+14
6.91074e+14
6.8145e+14
6.74049e+14
6.60739e+14
6.46967e+14
6.38988e+14
6.25149e+14
6.06727e+14
5.92534e+14
5.71488e+14
5.52673e+14
5.39648e+14
5.22935e+14
4.99117e+14
4.78343e+14
4.56113e+14
4.33935e+14
4.10768e+14
3.88911e+14
3.60935e+14
3.36837e+14
3.13824e+14
2.88431e+14
2.66093e+14
2.35628e+14
2.09088e+14
1.83099e+14
1.56501e+14
1.31609e+14
1.03745e+14
7.45378e+13
4.18531e+13
4.75894e+13
8.23638e+13
1.13381e+14
1.41831e+14
1.71652e+14
2.0092e+14
2.28883e+14
2.6163e+14
2.81904e+14
3.1186e+14
3.4093e+14
3.67399e+14
3.92603e+14
4.17722e+14
4.39169e+14
4.68934e+14
4.90062e+14
5.10903e+14
5.33652e+14
5.55074e+14
5.78061e+14
6.06838e+14
6.17479e+14
6.37546e+14
6.62132e+14
6.74187e+14
6.88852e+14
6.99633e+14
7.12496e+14
7.26692e+14
7.37381e+14
7.42758e+14
7.54193e+14
7.70977e+14
7.6766e+14
7.79024e+14
7.80142e+14
7.79593e+14
7.83655e+14
7.83987e+14
7.8998e+14
7.82781e+14
7.86238e+14
7.80112e+14
7.78263e+14
7.69233e+14
7.62049e+14
7.5676e+14
7.47989e+14
7.38983e+14
7.289e+14
7.14963e+14
7.02846e+14
6.85037e+14
6.71841e+14
6.56175e+14
6.38553e+14
6.18391e+14
5.97335e+14
5.78315e+14
5.60207e+14
5.45312e+14
5.15515e+14
4.96001e+14
4.67932e+14
4.43281e+14
4.16674e+14
3.86126e+14
3.66741e+14
3.37013e+14
3.08747e+14
2.83691e+14
2.53698e+14
2.21437e+14
1.96565e+14
1.65637e+14
1.39689e+14
1.10845e+14
8.10068e+13
4.41752e+13
5.02129e+13
8.99291e+13
1.21538e+14
1.51641e+14
1.85568e+14
2.16613e+14
2.44119e+14
2.74712e+14
2.98601e+14
3.35191e+14
3.65967e+14
3.93457e+14
4.24416e+14
4.50763e+14
4.71071e+14
4.97551e+14
5.31688e+14
5.49371e+14
5.80276e+14
5.99198e+14
6.27714e+14
6.40592e+14
6.6121e+14
6.81019e+14
7.06984e+14
7.29391e+14
7.37784e+14
7.54131e+14
7.59311e+14
7.79114e+14
7.85939e+14
8.00458e+14
8.14139e+14
8.22552e+14
8.20506e+14
8.34814e+14
8.3879e+14
8.39698e+14
8.46155e+14
8.44117e+14
8.49009e+14
8.44929e+14
8.40898e+14
8.33326e+14
8.25015e+14
8.1721e+14
8.13867e+14
8.07343e+14
8.02302e+14
7.90471e+14
7.79713e+14
7.69458e+14
7.48089e+14
7.35985e+14
7.20004e+14
7.01606e+14
6.8212e+14
6.67599e+14
6.40652e+14
6.1969e+14
6.01902e+14
5.7954e+14
5.53304e+14
5.28508e+14
4.98187e+14
4.70492e+14
4.45594e+14
4.20472e+14
3.94404e+14
3.63406e+14
3.28499e+14
3.03448e+14
2.72799e+14
2.39152e+14
2.06691e+14
1.80243e+14
1.45881e+14
1.16793e+14
8.49605e+13
4.7978e+13
5.02234e+13
9.38242e+13
1.27917e+14
1.6432e+14
1.97233e+14
2.3115e+14
2.6412e+14
2.93763e+14
3.20843e+14
3.56557e+14
3.83092e+14
4.18694e+14
4.52894e+14
4.80569e+14
5.0516e+14
5.32954e+14
5.6337e+14
5.85075e+14
6.10637e+14
6.38782e+14
6.67067e+14
6.82043e+14
7.0369e+14
7.25949e+14
7.53481e+14
7.65595e+14
7.86916e+14
8.06977e+14
8.15914e+14
8.31379e+14
8.48884e+14
8.55447e+14
8.69135e+14
8.78427e+14
8.85246e+14
8.85916e+14
8.95932e+14
8.94166e+14
9.06054e+14
9.00858e+14
9.00111e+14
8.99673e+14
8.99726e+14
8.8579e+14
8.85379e+14
8.74599e+14
8.66855e+14
8.58981e+14
8.54417e+14
8.44413e+14
8.32491e+14
8.17013e+14
8.00869e+14
7.86473e+14
7.69267e+14
7.4436e+14
7.20099e+14
7.0554e+14
6.81946e+14
6.60838e+14
6.39009e+14
6.13145e+14
5.87024e+14
5.57213e+14
5.29715e+14
5.01519e+14
4.7576e+14
4.48353e+14
4.20034e+14
3.82285e+14
3.5619e+14
3.23628e+14
2.87967e+14
2.57841e+14
2.25122e+14
1.94496e+14
1.57376e+14
1.25929e+14
9.15099e+13
5.16035e+13
5.30494e+13
9.93392e+13
1.35283e+14
1.71222e+14
2.05399e+14
2.4437e+14
2.80729e+14
3.14519e+14
3.41523e+14
3.74532e+14
4.09787e+14
4.44212e+14
4.74943e+14
5.07524e+14
5.37292e+14
5.71146e+14
5.96222e+14
6.20603e+14
6.50266e+14
6.74487e+14
7.06662e+14
7.24921e+14
7.51702e+14
7.78812e+14
8.01146e+14
8.16851e+14
8.42744e+14
8.40127e+14
8.64401e+14
8.79988e+14
8.91202e+14
9.09792e+14
9.16414e+14
9.35014e+14
9.34493e+14
9.44983e+14
9.52634e+14
9.45051e+14
9.57073e+14
9.52295e+14
9.50194e+14
9.56898e+14
9.52549e+14
9.46739e+14
9.4592e+14
9.36174e+14
9.23858e+14
9.0937e+14
9.0859e+14
8.96826e+14
8.78865e+14
8.71651e+14
8.49194e+14
8.26737e+14
8.08932e+14
7.90125e+14
7.61514e+14
7.52809e+14
7.24949e+14
6.98851e+14
6.7737e+14
6.55565e+14
6.3068e+14
5.89185e+14
5.66837e+14
5.33897e+14
5.04061e+14
4.73015e+14
4.40515e+14
4.09795e+14
3.73661e+14
3.41501e+14
3.10824e+14
2.74043e+14
2.38136e+14
2.08084e+14
1.67323e+14
1.33569e+14
9.63577e+13
5.37047e+13
5.4079e+13
1.04563e+14
1.44226e+14
1.82412e+14
2.15991e+14
2.53233e+14
2.95575e+14
3.32442e+14
3.65544e+14
4.00228e+14
4.37699e+14
4.7387e+14
5.01174e+14
5.37158e+14
5.71726e+14
6.03281e+14
6.32705e+14
6.5816e+14
6.9371e+14
7.16007e+14
7.4327e+14
7.68792e+14
7.95289e+14
8.22008e+14
8.44315e+14
8.61942e+14
8.88229e+14
8.95554e+14
9.17621e+14
9.36032e+14
9.44767e+14
9.60762e+14
9.66314e+14
9.79002e+14
9.88725e+14
9.97177e+14
1.00304e+15
9.99912e+14
1.0109e+15
1.01095e+15
1.00905e+15
1.00538e+15
1.00643e+15
1.0017e+15
9.92642e+14
9.89295e+14
9.78624e+14
9.60108e+14
9.56781e+14
9.44543e+14
9.33279e+14
9.18322e+14
9.00366e+14
8.77456e+14
8.51642e+14
8.33145e+14
8.05677e+14
7.89441e+14
7.66798e+14
7.42438e+14
7.15481e+14
6.86468e+14
6.62028e+14
6.21965e+14
5.90402e+14
5.65527e+14
5.32223e+14
5.01066e+14
4.66799e+14
4.27684e+14
3.98084e+14
3.63869e+14
3.26373e+14
2.92111e+14
2.53605e+14
2.16016e+14
1.78785e+14
1.39079e+14
1.01872e+14
5.73965e+13
5.98372e+13
1.11382e+14
1.50642e+14
1.93099e+14
2.31764e+14
2.70704e+14
3.09805e+14
3.51674e+14
3.84791e+14
4.21312e+14
4.58152e+14
4.94794e+14
5.2892e+14
5.70184e+14
6.05235e+14
6.34799e+14
6.70623e+14
6.92558e+14
7.3328e+14
7.61566e+14
7.82077e+14
8.09261e+14
8.32711e+14
8.64361e+14
8.86167e+14
9.03321e+14
9.33358e+14
9.45754e+14
9.59267e+14
9.87608e+14
9.93144e+14
1.00531e+15
1.02548e+15
1.02703e+15
1.03539e+15
1.04778e+15
1.05549e+15
1.05957e+15
1.05901e+15
1.06175e+15
1.06068e+15
1.06601e+15
1.06099e+15
1.0479e+15
1.04878e+15
1.04268e+15
1.03158e+15
1.01954e+15
1.01533e+15
9.93461e+14
9.77257e+14
9.6091e+14
9.41967e+14
9.20321e+14
9.01564e+14
8.81245e+14
8.57733e+14
8.29124e+14
8.07957e+14
7.74812e+14
7.48851e+14
7.22943e+14
6.86395e+14
6.58993e+14
6.26033e+14
5.98036e+14
5.59831e+14
5.25545e+14
4.90936e+14
4.52365e+14
4.25101e+14
3.83732e+14
3.41082e+14
3.05481e+14
2.68446e+14
2.28768e+14
1.87865e+14
1.45742e+14
1.06129e+14
6.05968e+13
6.39394e+13
1.14145e+14
1.5862e+14
2.02033e+14
2.45844e+14
2.87567e+14
3.25512e+14
3.64399e+14
4.00404e+14
4.42297e+14
4.86235e+14
5.16249e+14
5.59032e+14
5.96972e+14
6.30582e+14
6.63497e+14
7.02535e+14
7.29949e+14
7.64479e+14
7.97598e+14
8.2394e+14
8.54468e+14
8.82644e+14
9.01645e+14
9.25347e+14
9.53745e+14
9.76656e+14
1.00182e+15
1.01068e+15
1.03675e+15
1.04954e+15
1.0633e+15
1.07465e+15
1.07796e+15
1.08852e+15
1.09624e+15
1.11443e+15
1.11605e+15
1.11871e+15
1.1202e+15
1.12454e+15
1.11602e+15
1.11474e+15
1.09967e+15
1.10033e+15
1.09194e+15
1.08297e+15
1.07033e+15
1.06621e+15
1.04144e+15
1.02818e+15
1.00571e+15
9.96521e+14
9.75368e+14
9.52751e+14
9.30171e+14
8.99449e+14
8.66698e+14
8.40855e+14
8.15953e+14
7.96553e+14
7.52718e+14
7.23462e+14
6.9422e+14
6.58957e+14
6.23924e+14
5.91039e+14
5.48171e+14
5.19075e+14
4.84671e+14
4.46378e+14
4.00583e+14
3.59012e+14
3.19239e+14
2.79738e+14
2.36928e+14
1.95098e+14
1.53764e+14
1.11283e+14
6.43597e+13
6.70468e+13
1.20297e+14
1.66124e+14
2.12533e+14
2.53305e+14
2.98035e+14
3.36321e+14
3.76165e+14
4.19918e+14
4.69998e+14
5.08063e+14
5.39318e+14
5.85966e+14
6.28333e+14
6.65951e+14
6.99505e+14
7.36087e+14
7.70218e+14
8.01714e+14
8.33438e+14
8.70402e+14
8.92184e+14
9.21618e+14
9.47053e+14
9.78124e+14
1.00043e+15
1.02486e+15
1.04675e+15
1.0633e+15
1.09418e+15
1.09476e+15
1.11312e+15
1.12137e+15
1.12423e+15
1.13945e+15
1.14739e+15
1.16118e+15
1.16238e+15
1.16953e+15
1.17058e+15
1.16826e+15
1.17091e+15
1.16469e+15
1.15592e+15
1.15013e+15
1.13661e+15
1.14047e+15
1.12407e+15
1.11025e+15
1.08937e+15
1.07101e+15
1.05971e+15
1.03977e+15
1.01634e+15
9.97035e+14
9.68746e+14
9.42674e+14
9.11233e+14
8.85819e+14
8.58895e+14
8.25744e+14
7.88448e+14
7.5875e+14
7.31457e+14
6.95106e+14
6.50564e+14
6.14943e+14
5.83003e+14
5.40434e+14
5.04227e+14
4.66674e+14
4.18282e+14
3.79312e+14
3.40051e+14
2.91649e+14
2.47703e+14
2.01202e+14
1.61311e+14
1.17596e+14
6.8096e+13
7.1825e+13
1.28769e+14
1.72462e+14
2.2026e+14
2.60304e+14
3.11926e+14
3.56746e+14
3.94611e+14
4.47802e+14
4.88942e+14
5.23467e+14
5.68449e+14
6.07351e+14
6.57615e+14
6.98544e+14
7.31865e+14
7.73064e+14
8.06389e+14
8.36711e+14
8.72034e+14
8.98824e+14
9.29647e+14
9.5769e+14
1.00149e+15
1.02551e+15
1.04146e+15
1.06334e+15
1.0873e+15
1.10618e+15
1.1318e+15
1.14132e+15
1.16038e+15
1.16957e+15
1.18478e+15
1.19106e+15
1.20104e+15
1.21029e+15
1.21825e+15
1.21168e+15
1.21906e+15
1.21541e+15
1.21412e+15
1.22205e+15
1.2041e+15
1.20616e+15
1.19351e+15
1.19281e+15
1.17616e+15
1.15782e+15
1.13512e+15
1.12025e+15
1.106e+15
1.09061e+15
1.06397e+15
1.03595e+15
1.01678e+15
9.81763e+14
9.56925e+14
9.23296e+14
8.99017e+14
8.60031e+14
8.24337e+14
7.88128e+14
7.66957e+14
7.28486e+14
6.86501e+14
6.49524e+14
6.12267e+14
5.63612e+14
5.25763e+14
4.84786e+14
4.37271e+14
3.93819e+14
3.51889e+14
3.06198e+14
2.58111e+14
2.14202e+14
1.68054e+14
1.20914e+14
7.08875e+13
7.22152e+13
1.3394e+14
1.85506e+14
2.2713e+14
2.73701e+14
3.25979e+14
3.695e+14
4.16935e+14
4.61697e+14
5.07704e+14
5.4668e+14
5.92144e+14
6.38795e+14
6.81803e+14
7.25007e+14
7.64489e+14
8.07801e+14
8.42657e+14
8.79454e+14
9.13203e+14
9.4013e+14
9.70608e+14
9.94466e+14
1.0383e+15
1.0653e+15
1.08455e+15
1.10913e+15
1.13142e+15
1.15153e+15
1.17911e+15
1.19423e+15
1.21168e+15
1.218e+15
1.22596e+15
1.24343e+15
1.25632e+15
1.26457e+15
1.26199e+15
1.26831e+15
1.26705e+15
1.26488e+15
1.27104e+15
1.27088e+15
1.26505e+15
1.25614e+15
1.24115e+15
1.22991e+15
1.21368e+15
1.2019e+15
1.18607e+15
1.17579e+15
1.15257e+15
1.13462e+15
1.10806e+15
1.07894e+15
1.05881e+15
1.02561e+15
1.0016e+15
9.65737e+14
9.37161e+14
9.0617e+14
8.68755e+14
8.2882e+14
7.96654e+14
7.62026e+14
7.19078e+14
6.80438e+14
6.37024e+14
5.90572e+14
5.49138e+14
5.10037e+14
4.54083e+14
4.11481e+14
3.61417e+14
3.17997e+14
2.6959e+14
2.23541e+14
1.74855e+14
1.26471e+14
7.4501e+13
7.67554e+13
1.41027e+14
1.89743e+14
2.3591e+14
2.90387e+14
3.39486e+14
3.84744e+14
4.32188e+14
4.73244e+14
5.24339e+14
5.66887e+14
6.13789e+14
6.64317e+14
7.05921e+14
7.53639e+14
7.99419e+14
8.37287e+14
8.79633e+14
9.12382e+14
9.43527e+14
9.78137e+14
1.01086e+15
1.04218e+15
1.07438e+15
1.10837e+15
1.13935e+15
1.15382e+15
1.17714e+15
1.20211e+15
1.22742e+15
1.24177e+15
1.25416e+15
1.2775e+15
1.29059e+15
1.29516e+15
1.31026e+15
1.31207e+15
1.32236e+15
1.31952e+15
1.31997e+15
1.31744e+15
1.32109e+15
1.31956e+15
1.32068e+15
1.30061e+15
1.29649e+15
1.27324e+15
1.26115e+15
1.25105e+15
1.2398e+15
1.22222e+15
1.19226e+15
1.16762e+15
1.14527e+15
1.12056e+15
1.09097e+15
1.05786e+15
1.03296e+15
1.00142e+15
9.70915e+14
9.38445e+14
9.02898e+14
8.57896e+14
8.31981e+14
7.86637e+14
7.43967e+14
7.01045e+14
6.61888e+14
6.12383e+14
5.72863e+14
5.25583e+14
4.73633e+14
4.29631e+14
3.78163e+14
3.3316e+14
2.80473e+14
2.28681e+14
1.80543e+14
1.33107e+14
7.77981e+13
8.01033e+13
1.45365e+14
1.99098e+14
2.50707e+14
2.99021e+14
3.52401e+14
3.98644e+14
4.46167e+14
4.95196e+14
5.51673e+14
5.94234e+14
6.46987e+14
6.93836e+14
7.32364e+14
7.80557e+14
8.19043e+14
8.66556e+14
9.08442e+14
9.44121e+14
9.77389e+14
1.01649e+15
1.05266e+15
1.08882e+15
1.12076e+15
1.14704e+15
1.17727e+15
1.20693e+15
1.22184e+15
1.24051e+15
1.26039e+15
1.29069e+15
1.29947e+15
1.31693e+15
1.33721e+15
1.34814e+15
1.35664e+15
1.35841e+15
1.37066e+15
1.37025e+15
1.37755e+15
1.36996e+15
1.36657e+15
1.36017e+15
1.36361e+15
1.3515e+15
1.34181e+15
1.32038e+15
1.30634e+15
1.30285e+15
1.27878e+15
1.26312e+15
1.24058e+15
1.21938e+15
1.18628e+15
1.16637e+15
1.13993e+15
1.0955e+15
1.06884e+15
1.04505e+15
1.00747e+15
9.73401e+14
9.39658e+14
8.93124e+14
8.64668e+14
8.22673e+14
7.76292e+14
7.28267e+14
6.84311e+14
6.4018e+14
5.8976e+14
5.40564e+14
4.9539e+14
4.49778e+14
3.93117e+14
3.49279e+14
2.91929e+14
2.40447e+14
1.89619e+14
1.37869e+14
7.65554e+13
8.27781e+13
1.47475e+14
2.05399e+14
2.55474e+14
3.0917e+14
3.64443e+14
4.17135e+14
4.66662e+14
5.17409e+14
5.68202e+14
6.13766e+14
6.65267e+14
7.1341e+14
7.61706e+14
8.10013e+14
8.56877e+14
8.99921e+14
9.3147e+14
9.75499e+14
1.01581e+15
1.0574e+15
1.08972e+15
1.12575e+15
1.15854e+15
1.18278e+15
1.21251e+15
1.24271e+15
1.2651e+15
1.28231e+15
1.3106e+15
1.32801e+15
1.34523e+15
1.36456e+15
1.38172e+15
1.3963e+15
1.41082e+15
1.41031e+15
1.41501e+15
1.41741e+15
1.41479e+15
1.41807e+15
1.42258e+15
1.42246e+15
1.41424e+15
1.40891e+15
1.39758e+15
1.37113e+15
1.35604e+15
1.34252e+15
1.32239e+15
1.30782e+15
1.28816e+15
1.26199e+15
1.237e+15
1.20508e+15
1.18652e+15
1.14443e+15
1.11218e+15
1.07756e+15
1.04074e+15
1.0016e+15
9.75361e+14
9.26001e+14
8.8814e+14
8.45556e+14
8.06094e+14
7.57101e+14
7.08388e+14
6.61357e+14
6.1328e+14
5.62299e+14
5.11942e+14
4.55085e+14
4.05123e+14
3.56369e+14
2.99887e+14
2.49989e+14
1.96373e+14
1.42432e+14
7.90795e+13
8.49905e+13
1.51771e+14
2.09557e+14
2.6599e+14
3.20551e+14
3.76129e+14
4.29998e+14
4.8412e+14
5.31497e+14
5.86114e+14
6.42686e+14
6.9128e+14
7.39892e+14
7.87144e+14
8.35245e+14
8.80449e+14
9.23915e+14
9.58979e+14
1.01301e+15
1.0457e+15
1.07595e+15
1.12136e+15
1.15556e+15
1.18894e+15
1.22243e+15
1.25314e+15
1.28636e+15
1.30891e+15
1.33045e+15
1.35298e+15
1.38149e+15
1.40379e+15
1.41362e+15
1.42509e+15
1.44512e+15
1.44778e+15
1.4638e+15
1.46933e+15
1.47186e+15
1.47604e+15
1.47081e+15
1.47179e+15
1.4628e+15
1.46771e+15
1.45308e+15
1.43659e+15
1.42423e+15
1.41081e+15
1.39816e+15
1.37634e+15
1.35076e+15
1.33019e+15
1.30167e+15
1.27299e+15
1.2506e+15
1.21894e+15
1.18532e+15
1.14389e+15
1.11238e+15
1.07053e+15
1.02756e+15
9.98432e+14
9.57237e+14
9.16223e+14
8.75252e+14
8.31566e+14
7.88605e+14
7.37122e+14
6.89628e+14
6.32914e+14
5.79954e+14
5.30437e+14
4.69716e+14
4.22826e+14
3.66771e+14
3.11032e+14
2.56481e+14
2.02412e+14
1.47149e+14
8.31781e+13
8.7662e+13
1.54599e+14
2.1607e+14
2.76172e+14
3.31618e+14
3.84366e+14
4.406e+14
4.96361e+14
5.53775e+14
6.00495e+14
6.54726e+14
7.09504e+14
7.59158e+14
8.12989e+14
8.6307e+14
9.03913e+14
9.51995e+14
9.90629e+14
1.03495e+15
1.08012e+15
1.12109e+15
1.15609e+15
1.1963e+15
1.2292e+15
1.27083e+15
1.29038e+15
1.32525e+15
1.34853e+15
1.36772e+15
1.39437e+15
1.41727e+15
1.43811e+15
1.46084e+15
1.47376e+15
1.4758e+15
1.4971e+15
1.50133e+15
1.51897e+15
1.51709e+15
1.52052e+15
1.52122e+15
1.51857e+15
1.51158e+15
1.50889e+15
1.50615e+15
1.49253e+15
1.46048e+15
1.4618e+15
1.43552e+15
1.42119e+15
1.39587e+15
1.37697e+15
1.3398e+15
1.31101e+15
1.28397e+15
1.25644e+15
1.2213e+15
1.18748e+15
1.15083e+15
1.11131e+15
1.07179e+15
1.03175e+15
9.89479e+14
9.38771e+14
8.96773e+14
8.53268e+14
8.04764e+14
7.54752e+14
7.00966e+14
6.47084e+14
5.89762e+14
5.48313e+14
4.89101e+14
4.3465e+14
3.79118e+14
3.23665e+14
2.67721e+14
2.0909e+14
1.495e+14
8.59149e+13
8.94914e+13
1.59295e+14
2.21274e+14
2.83502e+14
3.40258e+14
3.94547e+14
4.54542e+14
5.11803e+14
5.69855e+14
6.23926e+14
6.82579e+14
7.30455e+14
7.87997e+14
8.33594e+14
8.79568e+14
9.32963e+14
9.75995e+14
1.02511e+15
1.06691e+15
1.11722e+15
1.15425e+15
1.18621e+15
1.22857e+15
1.26921e+15
1.29988e+15
1.33843e+15
1.37015e+15
1.38973e+15
1.41808e+15
1.43741e+15
1.46766e+15
1.49326e+15
1.50363e+15
1.51515e+15
1.52123e+15
1.54324e+15
1.54986e+15
1.55231e+15
1.55846e+15
1.57395e+15
1.57129e+15
1.55993e+15
1.55845e+15
1.56325e+15
1.54485e+15
1.53007e+15
1.49895e+15
1.50215e+15
1.48588e+15
1.46122e+15
1.4382e+15
1.41521e+15
1.38376e+15
1.35298e+15
1.31886e+15
1.29407e+15
1.25696e+15
1.2192e+15
1.18447e+15
1.14824e+15
1.10298e+15
1.05631e+15
1.01725e+15
9.71491e+14
9.21871e+14
8.84504e+14
8.34649e+14
7.73382e+14
7.22703e+14
6.69879e+14
6.14832e+14
5.61677e+14
5.05463e+14
4.45953e+14
3.93177e+14
3.315e+14
2.754e+14
2.13419e+14
1.53751e+14
8.67913e+13
9.16728e+13
1.64508e+14
2.29011e+14
2.90641e+14
3.48969e+14
4.07626e+14
4.70617e+14
5.30554e+14
5.8411e+14
6.48615e+14
7.02553e+14
7.51319e+14
8.07641e+14
8.57693e+14
9.05529e+14
9.58716e+14
1.00374e+15
1.04802e+15
1.10016e+15
1.14406e+15
1.18409e+15
1.2232e+15
1.26689e+15
1.3126e+15
1.33638e+15
1.36756e+15
1.40709e+15
1.4268e+15
1.45161e+15
1.4771e+15
1.50022e+15
1.52036e+15
1.54468e+15
1.55772e+15
1.57919e+15
1.59068e+15
1.60324e+15
1.60391e+15
1.60973e+15
1.62105e+15
1.61575e+15
1.60683e+15
1.6066e+15
1.59568e+15
1.57881e+15
1.5677e+15
1.55703e+15
1.53927e+15
1.52613e+15
1.4995e+15
1.48101e+15
1.4474e+15
1.42079e+15
1.39614e+15
1.36355e+15
1.32082e+15
1.29432e+15
1.25718e+15
1.21945e+15
1.17992e+15
1.13067e+15
1.09007e+15
1.05116e+15
1.0028e+15
9.57063e+14
9.03144e+14
8.44068e+14
7.98429e+14
7.38819e+14
6.83748e+14
6.29989e+14
5.80665e+14
5.21422e+14
4.65629e+14
4.08148e+14
3.40359e+14
2.84608e+14
2.24252e+14
1.61079e+14
8.97911e+13
9.34654e+13
1.69927e+14
2.38888e+14
2.98033e+14
3.61078e+14
4.25341e+14
4.85018e+14
5.51479e+14
6.05369e+14
6.62474e+14
7.22011e+14
7.75425e+14
8.35634e+14
8.77524e+14
9.33393e+14
9.87755e+14
1.03269e+15
1.08193e+15
1.13006e+15
1.17412e+15
1.21889e+15
1.26025e+15
1.31062e+15
1.3407e+15
1.37382e+15
1.41205e+15
1.45009e+15
1.46528e+15
1.49113e+15
1.52969e+15
1.54568e+15
1.56854e+15
1.58794e+15
1.60669e+15
1.6269e+15
1.64471e+15
1.64871e+15
1.64773e+15
1.64886e+15
1.64863e+15
1.658e+15
1.65525e+15
1.64524e+15
1.63185e+15
1.62193e+15
1.61009e+15
1.59704e+15
1.58444e+15
1.55819e+15
1.53655e+15
1.50897e+15
1.48783e+15
1.45788e+15
1.42874e+15
1.40175e+15
1.3638e+15
1.32143e+15
1.28407e+15
1.24678e+15
1.20371e+15
1.16509e+15
1.11994e+15
1.079e+15
1.0351e+15
9.77687e+14
9.29327e+14
8.73858e+14
8.18079e+14
7.53698e+14
7.00617e+14
6.42965e+14
5.94375e+14
5.39293e+14
4.78148e+14
4.16088e+14
3.52019e+14
2.94001e+14
2.29087e+14
1.63991e+14
9.25049e+13
9.507e+13
1.76196e+14
2.43007e+14
3.08872e+14
3.72752e+14
4.32455e+14
4.95311e+14
5.62617e+14
6.1964e+14
6.78142e+14
7.38772e+14
8.03756e+14
8.55066e+14
9.06973e+14
9.63663e+14
1.01316e+15
1.0607e+15
1.10995e+15
1.15896e+15
1.20628e+15
1.24403e+15
1.29498e+15
1.3325e+15
1.37742e+15
1.40893e+15
1.44195e+15
1.48159e+15
1.50678e+15
1.54147e+15
1.57113e+15
1.59533e+15
1.60895e+15
1.62933e+15
1.65909e+15
1.6623e+15
1.67929e+15
1.68264e+15
1.68889e+15
1.68998e+15
1.6842e+15
1.6952e+15
1.68262e+15
1.68372e+15
1.67624e+15
1.66602e+15
1.65126e+15
1.62702e+15
1.6124e+15
1.60154e+15
1.578e+15
1.5567e+15
1.52388e+15
1.49809e+15
1.46346e+15
1.43227e+15
1.39018e+15
1.34874e+15
1.31343e+15
1.27729e+15
1.23549e+15
1.19208e+15
1.13853e+15
1.1007e+15
1.05829e+15