/*--------------------------------*- C++ -*----------------------------------*\
  =========                 |
  \\      /  F ield         | OpenFOAM: The Open Source CFD Toolbox
   \\    /   O peration     | Website:  https://openfoam.org
    \\  /    A nd           | Version:  6
     \\/     M anipulation  |
\*---------------------------------------------------------------------------*/
FoamFile
{
    version     2.0;
    format      ascii;
    class       volScalarField;
    location    "600";
    object      dnp8_s;
}
// * * * * * * * * * * * * * * * * * * * * * * * * * * * * * * * * * * * * * //

dimensions      [0 -3 -1 0 0 0 0];

internalField   nonuniform List<scalar> 
6400
(
2.53102e+13
4.10946e+13
5.55956e+13
7.03718e+13
8.93497e+13
1.04098e+14
1.14871e+14
1.31984e+14
1.44932e+14
1.61121e+14
1.70037e+14
1.91953e+14
1.98405e+14
2.08977e+14
2.27319e+14
2.37109e+14
2.57591e+14
2.58705e+14
2.78406e+14
2.82244e+14
3.0307e+14
3.0793e+14
3.08117e+14
3.17132e+14
3.3274e+14
3.32031e+14
3.45833e+14
3.48415e+14
3.59522e+14
3.67289e+14
3.93728e+14
3.75826e+14
3.84293e+14
3.90154e+14
3.98256e+14
3.85831e+14
4.04986e+14
3.94381e+14
3.96801e+14
3.89163e+14
4.11121e+14
3.93214e+14
4.06583e+14
3.89111e+14
3.87467e+14
3.84714e+14
3.91033e+14
3.87636e+14
3.70836e+14
3.82177e+14
3.646e+14
3.78109e+14
3.54696e+14
3.49095e+14
3.38707e+14
3.32792e+14
3.2199e+14
3.18002e+14
3.01354e+14
2.92621e+14
2.80322e+14
2.71007e+14
2.59626e+14
2.47682e+14
2.3944e+14
2.21395e+14
2.17967e+14
1.93685e+14
1.93224e+14
1.74216e+14
1.61287e+14
1.46835e+14
1.28408e+14
1.17641e+14
1.01068e+14
9.46141e+13
7.30477e+13
5.76152e+13
4.46264e+13
2.54732e+13
3.84124e+13
6.01676e+13
8.86713e+13
1.16096e+14
1.36395e+14
1.62058e+14
1.78402e+14
2.03941e+14
2.34993e+14
2.43146e+14
2.6533e+14
2.88316e+14
3.19011e+14
3.23367e+14
3.5005e+14
3.79257e+14
3.92855e+14
4.13878e+14
4.21806e+14
4.42826e+14
4.52669e+14
4.79471e+14
4.79848e+14
4.92245e+14
5.177e+14
5.2347e+14
5.38831e+14
5.41362e+14
5.73406e+14
5.65944e+14
5.80921e+14
5.72864e+14
6.10673e+14
5.87694e+14
6.00565e+14
6.01877e+14
6.11636e+14
6.10654e+14
6.24078e+14
6.18231e+14
6.26798e+14
6.29094e+14
6.23047e+14
6.10525e+14
5.99087e+14
5.95294e+14
6.0618e+14
5.84811e+14
5.87757e+14
5.81049e+14
5.75129e+14
5.68137e+14
5.60269e+14
5.40799e+14
5.23705e+14
5.08786e+14
4.96197e+14
4.81148e+14
4.75822e+14
4.51148e+14
4.32605e+14
4.16009e+14
3.97517e+14
3.73642e+14
3.69625e+14
3.5273e+14
3.27915e+14
3.06382e+14
2.84085e+14
2.75527e+14
2.48802e+14
2.2331e+14
1.96083e+14
1.77452e+14
1.59822e+14
1.33528e+14
1.11556e+14
8.59778e+13
7.17579e+13
3.72702e+13
5.22909e+13
8.47763e+13
1.14282e+14
1.54927e+14
1.74982e+14
2.06934e+14
2.36079e+14
2.68522e+14
3.04077e+14
3.2e+14
3.46002e+14
3.74872e+14
4.13989e+14
4.28363e+14
4.73868e+14
5.01007e+14
5.16708e+14
5.38695e+14
5.64885e+14
5.94062e+14
5.99864e+14
6.39414e+14
6.34127e+14
6.54752e+14
6.84755e+14
6.97756e+14
7.18382e+14
7.54259e+14
7.51987e+14
7.50188e+14
7.64424e+14
7.88305e+14
7.9119e+14
7.9674e+14
8.04368e+14
8.15336e+14
8.21629e+14
8.25824e+14
8.01557e+14
8.12347e+14
8.07429e+14
8.2038e+14
8.19786e+14
8.212e+14
8.02152e+14
7.89867e+14
7.92252e+14
7.79815e+14
7.67187e+14
7.68471e+14
7.6506e+14
7.47265e+14
7.3973e+14
7.17573e+14
6.95434e+14
6.80058e+14
6.48849e+14
6.49842e+14
6.33579e+14
6.05755e+14
5.68591e+14
5.62274e+14
5.37343e+14
4.96843e+14
4.82602e+14
4.67605e+14
4.34171e+14
4.08181e+14
3.74334e+14
3.63317e+14
3.35865e+14
3.08584e+14
2.62465e+14
2.5184e+14
2.10568e+14
1.78577e+14
1.55e+14
1.16223e+14
8.90828e+13
5.27529e+13
6.34566e+13
1.02655e+14
1.49834e+14
1.9101e+14
2.27764e+14
2.6257e+14
2.99655e+14
3.33095e+14
3.84369e+14
4.13221e+14
4.38236e+14
4.78521e+14
5.00847e+14
5.54492e+14
5.80443e+14
6.14509e+14
6.44332e+14
6.69511e+14
7.13389e+14
7.28309e+14
7.72588e+14
7.91486e+14
7.9928e+14
8.33169e+14
8.53046e+14
8.86619e+14
8.7248e+14
9.02851e+14
9.28229e+14
9.30627e+14
9.68927e+14
9.73604e+14
9.71207e+14
9.98882e+14
9.97156e+14
1.00817e+15
1.01987e+15
1.02313e+15
1.01035e+15
1.00976e+15
1.01847e+15
1.02711e+15
1.01978e+15
9.94967e+14
9.97624e+14
9.78955e+14
9.6902e+14
9.76818e+14
9.64925e+14
9.52352e+14
9.42035e+14
9.3008e+14
9.12864e+14
8.8801e+14
8.68575e+14
8.47762e+14
8.2917e+14
8.00604e+14
7.74063e+14
7.57074e+14
7.19349e+14
6.92833e+14
6.57974e+14
6.30061e+14
6.12062e+14
5.72755e+14
5.42228e+14
5.21522e+14
4.76834e+14
4.47051e+14
4.16127e+14
3.79948e+14
3.38222e+14
3.033e+14
2.67956e+14
2.22125e+14
1.89752e+14
1.47693e+14
1.03817e+14
6.46261e+13
7.46078e+13
1.36441e+14
1.72406e+14
2.23319e+14
2.65981e+14
3.18268e+14
3.59877e+14
4.04478e+14
4.47362e+14
4.93655e+14
5.3885e+14
5.64839e+14
6.00927e+14
6.59691e+14
7.08661e+14
7.42265e+14
7.78563e+14
8.14079e+14
8.33273e+14
8.73108e+14
8.96957e+14
9.32615e+14
9.62331e+14
9.91953e+14
1.02823e+15
1.05397e+15
1.06921e+15
1.08849e+15
1.10375e+15
1.13451e+15
1.13588e+15
1.14171e+15
1.16949e+15
1.15728e+15
1.18263e+15
1.18764e+15
1.19794e+15
1.23046e+15
1.22498e+15
1.23622e+15
1.22145e+15
1.22875e+15
1.22607e+15
1.20391e+15
1.16834e+15
1.18424e+15
1.18325e+15
1.15711e+15
1.17037e+15
1.13795e+15
1.13262e+15
1.08763e+15
1.08418e+15
1.09668e+15
1.05833e+15
1.02698e+15
1.00256e+15
9.6304e+14
9.28562e+14
9.08392e+14
8.74138e+14
8.17299e+14
7.86522e+14
7.52238e+14
7.23347e+14
6.89494e+14
6.56766e+14
6.33512e+14
5.69717e+14
5.37804e+14
4.89041e+14
4.42194e+14
4.11449e+14
3.52498e+14
3.04144e+14
2.65862e+14
2.22703e+14
1.78883e+14
1.21877e+14
7.43916e+13
8.99757e+13
1.53102e+14
2.08968e+14
2.67437e+14
3.07245e+14
3.63355e+14
4.15545e+14
4.74095e+14
5.21546e+14
5.71048e+14
6.17261e+14
6.58657e+14
7.0866e+14
7.71791e+14
8.20939e+14
8.41451e+14
9.02035e+14
9.29966e+14
9.59117e+14
1.02229e+15
1.06407e+15
1.09006e+15
1.11157e+15
1.15379e+15
1.18207e+15
1.22032e+15
1.23736e+15
1.26368e+15
1.28777e+15
1.31416e+15
1.30596e+15
1.33146e+15
1.36228e+15
1.3748e+15
1.388e+15
1.39803e+15
1.41042e+15
1.43228e+15
1.45238e+15
1.41124e+15
1.42378e+15
1.42513e+15
1.40399e+15
1.40668e+15
1.39579e+15
1.39685e+15
1.37538e+15
1.35995e+15
1.35116e+15
1.32911e+15
1.31378e+15
1.28658e+15
1.25221e+15
1.2442e+15
1.21752e+15
1.19186e+15
1.16554e+15
1.11906e+15
1.08141e+15
1.06143e+15
1.02716e+15
9.69578e+14
9.36957e+14
8.77059e+14
8.43826e+14
8.09102e+14
7.74721e+14
7.15601e+14
6.65584e+14
6.25561e+14
5.72062e+14
5.17427e+14
4.67206e+14
4.11106e+14
3.564e+14
3.14236e+14
2.61288e+14
2.08622e+14
1.41899e+14
8.90485e+13
1.00078e+14
1.67224e+14
2.37353e+14
3.01516e+14
3.4849e+14
4.09486e+14
4.6926e+14
5.33966e+14
5.8718e+14
6.54845e+14
7.01068e+14
7.5434e+14
8.13297e+14
8.66984e+14
9.09068e+14
9.70935e+14
1.00094e+15
1.06403e+15
1.1247e+15
1.16687e+15
1.19562e+15
1.24559e+15
1.26388e+15
1.28956e+15
1.33307e+15
1.38565e+15
1.43894e+15
1.45454e+15
1.43792e+15
1.48927e+15
1.51252e+15
1.52939e+15
1.54218e+15
1.55135e+15
1.57885e+15
1.58889e+15
1.6267e+15
1.62285e+15
1.60055e+15
1.61349e+15
1.61737e+15
1.62446e+15
1.61464e+15
1.61574e+15
1.58786e+15
1.57917e+15
1.58023e+15
1.56776e+15
1.53766e+15
1.51676e+15
1.48017e+15
1.45972e+15
1.47479e+15
1.40209e+15
1.36755e+15
1.37703e+15
1.33982e+15
1.27852e+15
1.21973e+15
1.21403e+15
1.17564e+15
1.12379e+15
1.0577e+15
1.00661e+15
9.64137e+14
9.10524e+14
8.98586e+14
8.33803e+14
7.606e+14
7.22472e+14
6.47181e+14
5.92498e+14
5.33868e+14
4.74182e+14
4.0232e+14
3.54534e+14
2.86226e+14
2.41617e+14
1.73488e+14
1.07223e+14
1.12735e+14
1.93453e+14
2.70456e+14
3.37801e+14
3.96115e+14
4.70509e+14
5.37548e+14
5.88988e+14
6.70509e+14
7.34236e+14
7.86621e+14
8.49823e+14
9.26363e+14
9.61813e+14
1.02192e+15
1.0933e+15
1.14877e+15
1.20329e+15
1.24236e+15
1.30234e+15
1.33399e+15
1.37709e+15
1.43236e+15
1.46389e+15
1.50328e+15
1.53773e+15
1.59993e+15
1.58958e+15
1.66242e+15
1.69584e+15
1.68594e+15
1.70386e+15
1.72022e+15
1.74026e+15
1.77276e+15
1.76564e+15
1.79715e+15
1.81318e+15
1.822e+15
1.82056e+15
1.82484e+15
1.80894e+15
1.79932e+15
1.83381e+15
1.78578e+15
1.74892e+15
1.76966e+15
1.7428e+15
1.73002e+15
1.67943e+15
1.67275e+15
1.66363e+15
1.60071e+15
1.57168e+15
1.53723e+15
1.51555e+15
1.48078e+15
1.46246e+15
1.40675e+15
1.33713e+15
1.29427e+15
1.23607e+15
1.18312e+15
1.11604e+15
1.08832e+15
1.03211e+15
9.80165e+14
9.32815e+14
8.77185e+14
8.01266e+14
7.3257e+14
6.62317e+14
6.06794e+14
5.25782e+14
4.66125e+14
3.93253e+14
3.23523e+14
2.71241e+14
1.97169e+14
1.15817e+14
1.22202e+14
2.09305e+14
3.04046e+14
3.7554e+14
4.54759e+14
5.08973e+14
5.95172e+14
6.71172e+14
7.31997e+14
8.06867e+14
8.88626e+14
9.27309e+14
1.0164e+15
1.09853e+15
1.16615e+15
1.17954e+15
1.25641e+15
1.35531e+15
1.3874e+15
1.43596e+15
1.49372e+15
1.53181e+15
1.55937e+15
1.63684e+15
1.65952e+15
1.70308e+15
1.76154e+15
1.7755e+15
1.80519e+15
1.84193e+15
1.88303e+15
1.89813e+15
1.94838e+15
1.9523e+15
1.95236e+15
1.97287e+15
1.99598e+15
2.01831e+15
2.03268e+15
2.02377e+15
2.01438e+15
2.01609e+15
1.98758e+15
1.98078e+15
1.97608e+15
1.94021e+15
1.93162e+15
1.90445e+15
1.90846e+15
1.88453e+15
1.84387e+15
1.80631e+15
1.76816e+15
1.75049e+15
1.70964e+15
1.67808e+15
1.65063e+15
1.60557e+15
1.53352e+15
1.49661e+15
1.41661e+15
1.39528e+15
1.33737e+15
1.26824e+15
1.17913e+15
1.12756e+15
1.08964e+15
1.01387e+15
9.57811e+14
8.7821e+14
8.23315e+14
7.56737e+14
6.69833e+14
5.8619e+14
5.15739e+14
4.43638e+14
3.63903e+14
2.96424e+14
2.068e+14
1.29905e+14
1.37424e+14
2.21779e+14
3.23173e+14
4.08481e+14
4.95973e+14
5.67085e+14
6.51951e+14
7.22381e+14
8.08329e+14
8.9106e+14
9.80447e+14
1.04186e+15
1.09466e+15
1.19488e+15
1.26511e+15
1.33215e+15
1.39911e+15
1.46334e+15
1.52494e+15
1.5833e+15
1.65363e+15
1.68136e+15
1.736e+15
1.80006e+15
1.84906e+15
1.90855e+15
1.93722e+15
1.97659e+15
2.01555e+15
2.04169e+15
2.07847e+15
2.10329e+15
2.13253e+15
2.13835e+15
2.1762e+15
2.16345e+15
2.19579e+15
2.19335e+15
2.18876e+15
2.20778e+15
2.22914e+15
2.20675e+15
2.20391e+15
2.18025e+15
2.17531e+15
2.14452e+15
2.12866e+15
2.10328e+15
2.0913e+15
2.06227e+15
2.03872e+15
2.00392e+15
1.96905e+15
1.93459e+15
1.87281e+15
1.86861e+15
1.80014e+15
1.72366e+15
1.6949e+15
1.63269e+15
1.56393e+15
1.4868e+15
1.42087e+15
1.36432e+15
1.31294e+15
1.26478e+15
1.18954e+15
1.12398e+15
1.02092e+15
9.69568e+14
8.96234e+14
8.13825e+14
7.08086e+14
6.39176e+14
5.57423e+14
4.86333e+14
3.99537e+14
3.15159e+14
2.33755e+14
1.35309e+14
1.55448e+14
2.43712e+14
3.50386e+14
4.39737e+14
5.17783e+14
6.17347e+14
7.09003e+14
7.85432e+14
8.88859e+14
9.72108e+14
1.08708e+15
1.13495e+15
1.18334e+15
1.28065e+15
1.36703e+15
1.43288e+15
1.51175e+15
1.57865e+15
1.65316e+15
1.74076e+15
1.7949e+15
1.85945e+15
1.89358e+15
1.90803e+15
1.98973e+15
2.05535e+15
2.11651e+15
2.1328e+15
2.20117e+15
2.21264e+15
2.24008e+15
2.25672e+15
2.28631e+15
2.32622e+15
2.36228e+15
2.36982e+15
2.37402e+15
2.41199e+15
2.39178e+15
2.4468e+15
2.42736e+15
2.40287e+15
2.41766e+15
2.38219e+15
2.36612e+15
2.31453e+15
2.32725e+15
2.3081e+15
2.27315e+15
2.2536e+15
2.22919e+15
2.17434e+15
2.13004e+15
2.0853e+15
2.05481e+15
2.01778e+15
1.91415e+15
1.89487e+15
1.83312e+15
1.77511e+15
1.72066e+15
1.61926e+15
1.57187e+15
1.49389e+15
1.43004e+15
1.38781e+15
1.29237e+15
1.19987e+15
1.13929e+15
1.04416e+15
9.72522e+14
8.802e+14
7.85417e+14
7.03262e+14
6.18475e+14
5.30711e+14
4.25251e+14
3.46952e+14
2.49062e+14
1.45978e+14
1.7799e+14
2.69434e+14
3.70253e+14
4.77123e+14
5.73043e+14
6.62717e+14
7.65803e+14
8.50699e+14
9.35333e+14
1.03946e+15
1.13959e+15
1.22699e+15
1.27837e+15
1.37513e+15
1.46506e+15
1.56341e+15
1.6561e+15
1.7199e+15
1.79289e+15
1.8618e+15
1.91959e+15
2.01253e+15
2.02402e+15
2.10051e+15
2.17314e+15
2.22036e+15
2.28079e+15
2.31371e+15
2.32864e+15
2.39946e+15
2.44316e+15
2.47762e+15
2.52683e+15
2.53026e+15
2.53335e+15
2.55287e+15
2.60968e+15
2.60625e+15
2.57052e+15
2.59712e+15
2.59927e+15
2.62224e+15
2.59267e+15
2.56793e+15
2.53093e+15
2.53231e+15
2.50723e+15
2.46671e+15
2.46049e+15
2.42385e+15
2.40188e+15
2.35602e+15
2.30133e+15
2.28149e+15
2.23391e+15
2.16267e+15
2.12028e+15
2.04026e+15
1.97049e+15
1.92995e+15
1.87487e+15
1.7844e+15
1.71442e+15
1.63347e+15
1.55694e+15
1.47209e+15
1.40037e+15
1.29899e+15
1.20919e+15
1.13213e+15
1.03999e+15
9.65202e+14
8.51328e+14
7.57568e+14
6.62215e+14
5.65815e+14
4.77416e+14
3.73401e+14
2.66532e+14
1.60314e+14
1.8447e+14
2.92979e+14
4.05006e+14
5.0536e+14
6.12835e+14
7.19359e+14
8.1853e+14
9.45406e+14
1.0099e+15
1.11777e+15
1.2222e+15
1.3177e+15
1.40986e+15
1.49907e+15
1.56923e+15
1.68101e+15
1.74936e+15
1.82334e+15
1.90261e+15
1.97807e+15
2.05663e+15
2.17413e+15
2.20602e+15
2.27217e+15
2.36704e+15
2.40443e+15
2.4582e+15
2.49365e+15
2.54123e+15
2.58901e+15
2.63088e+15
2.64053e+15
2.67318e+15
2.75444e+15
2.73242e+15
2.7762e+15
2.77728e+15
2.77074e+15
2.78877e+15
2.78329e+15
2.81459e+15
2.7781e+15
2.80058e+15
2.77819e+15
2.77988e+15
2.74424e+15
2.71377e+15
2.69802e+15
2.66342e+15
2.63293e+15
2.59871e+15
2.54583e+15
2.51079e+15
2.43888e+15
2.39382e+15
2.3415e+15
2.28023e+15
2.20597e+15
2.13233e+15
2.06332e+15
1.99671e+15
1.95767e+15
1.84238e+15
1.78068e+15
1.67863e+15
1.59319e+15
1.49755e+15
1.38063e+15
1.32182e+15
1.21255e+15
1.11328e+15
1.02483e+15
9.17378e+14
7.97315e+14
7.1437e+14
5.95847e+14
5.06101e+14
3.99696e+14
2.9226e+14
1.67136e+14
1.95188e+14
3.22754e+14
4.34282e+14
5.39576e+14
6.65229e+14
7.77041e+14
8.72398e+14
9.8406e+14
1.06513e+15
1.20332e+15
1.31499e+15
1.40905e+15
1.52299e+15
1.61821e+15
1.68473e+15
1.77262e+15
1.90861e+15
1.96057e+15
2.08072e+15
2.13806e+15
2.24912e+15
2.28072e+15
2.35734e+15
2.4215e+15
2.5137e+15
2.6094e+15
2.62812e+15
2.6928e+15
2.69649e+15
2.77528e+15
2.79042e+15
2.84564e+15
2.89793e+15
2.93175e+15
2.91084e+15
2.96905e+15
2.98676e+15
2.98649e+15
3.01206e+15
3.00067e+15
3.02341e+15
3.01036e+15
2.99297e+15
2.96874e+15
2.93194e+15
2.90097e+15
2.89239e+15
2.86824e+15
2.85505e+15
2.81134e+15
2.77184e+15
2.7462e+15
2.66006e+15
2.61954e+15
2.56439e+15
2.50241e+15
2.43191e+15
2.38808e+15
2.28643e+15
2.20882e+15
2.15015e+15
2.07301e+15
1.9798e+15
1.89568e+15
1.78425e+15
1.6842e+15
1.59707e+15
1.5111e+15
1.41964e+15
1.31309e+15
1.1782e+15
1.09602e+15
9.8839e+14
8.64358e+14
7.43373e+14
6.54286e+14
5.24153e+14
4.20269e+14
3.0406e+14
1.8251e+14
1.92221e+14
3.34871e+14
4.55124e+14
5.90142e+14
7.06457e+14
8.28438e+14
9.49062e+14
1.05379e+15
1.14893e+15
1.28091e+15
1.36597e+15
1.49827e+15
1.62393e+15
1.72156e+15
1.80739e+15
1.90324e+15
2.01312e+15
2.08837e+15
2.17222e+15
2.2761e+15
2.38151e+15
2.43066e+15
2.5041e+15
2.57801e+15
2.68517e+15
2.71638e+15
2.79514e+15
2.88003e+15
2.90623e+15
2.95366e+15
3.02903e+15
3.04093e+15
3.091e+15
3.12347e+15
3.15831e+15
3.14389e+15
3.18789e+15
3.17341e+15
3.22587e+15
3.20708e+15
3.19921e+15
3.19418e+15
3.20806e+15
3.14498e+15
3.14856e+15
3.1085e+15
3.07923e+15
3.05007e+15
3.03419e+15
3.00219e+15
2.96489e+15
2.9045e+15
2.8497e+15
2.80312e+15
2.74722e+15
2.65397e+15
2.5619e+15
2.51023e+15
2.42898e+15
2.35663e+15
2.28006e+15
2.18518e+15
2.09331e+15
1.99194e+15
1.89209e+15
1.79356e+15
1.70523e+15
1.60982e+15
1.51437e+15
1.36916e+15
1.2879e+15
1.16939e+15
1.03563e+15
9.3377e+14
8.1635e+14
7.06021e+14
5.68754e+14
4.55634e+14
3.29514e+14
1.96253e+14
2.04901e+14
3.55507e+14
4.82019e+14
6.10721e+14
7.32527e+14
8.76848e+14
1.00715e+15
1.13074e+15
1.22229e+15
1.33801e+15
1.46761e+15
1.58956e+15
1.69538e+15
1.81326e+15
1.91753e+15
2.04437e+15
2.12819e+15
2.2116e+15
2.31921e+15
2.397e+15
2.51988e+15
2.57959e+15
2.67411e+15
2.77409e+15
2.8538e+15
2.90318e+15
3.01427e+15
2.97558e+15
3.06779e+15
3.12655e+15
3.157e+15
3.23528e+15
3.24763e+15
3.33e+15
3.31762e+15
3.35634e+15
3.39587e+15
3.35186e+15
3.40019e+15
3.38459e+15
3.36565e+15
3.40078e+15
3.38591e+15
3.36208e+15
3.36687e+15
3.33393e+15
3.28919e+15
3.22527e+15
3.22758e+15
3.1934e+15
3.11657e+15
3.10441e+15
3.02411e+15
2.93799e+15
2.87767e+15
2.81809e+15
2.70263e+15
2.68539e+15
2.58406e+15
2.48565e+15
2.41209e+15
2.34142e+15
2.26165e+15
2.10182e+15
2.03363e+15
1.90938e+15
1.80529e+15
1.69491e+15
1.57878e+15
1.47813e+15
1.34148e+15
1.22834e+15
1.12598e+15
9.89742e+14
8.59505e+14
7.5864e+14
6.03682e+14
4.8422e+14
3.46317e+14
2.02189e+14
2.05684e+14
3.73573e+14
5.15962e+14
6.53707e+14
7.70588e+14
9.02243e+14
1.06001e+15
1.19192e+15
1.31158e+15
1.4343e+15
1.56894e+15
1.70067e+15
1.78881e+15
1.91744e+15
2.04253e+15
2.15267e+15
2.25895e+15
2.34305e+15
2.47686e+15
2.55003e+15
2.64314e+15
2.73514e+15
2.82678e+15
2.92135e+15
3.00264e+15
3.0588e+15
3.16181e+15
3.18412e+15
3.25894e+15
3.33088e+15
3.35629e+15
3.41688e+15
3.42831e+15
3.47094e+15
3.51116e+15
3.54006e+15
3.56709e+15
3.54451e+15
3.58876e+15
3.59493e+15
3.58856e+15
3.56271e+15
3.57213e+15
3.56417e+15
3.51988e+15
3.51363e+15
3.48494e+15
3.40278e+15
3.39057e+15
3.35329e+15
3.31881e+15
3.26725e+15
3.20859e+15
3.12879e+15
3.02531e+15
2.96404e+15
2.85741e+15
2.80723e+15
2.72846e+15
2.64903e+15
2.55285e+15
2.44392e+15
2.37253e+15
2.21849e+15
2.10198e+15
2.02098e+15
1.90408e+15
1.79681e+15
1.67666e+15
1.53159e+15
1.42965e+15
1.31193e+15
1.17764e+15
1.05837e+15
9.17688e+14
7.80877e+14
6.4929e+14
5.02072e+14
3.67754e+14
2.16747e+14
2.31307e+14
4.00304e+14
5.36335e+14
6.92162e+14
8.30846e+14
9.70551e+14
1.10821e+15
1.26375e+15
1.37794e+15
1.50746e+15
1.63592e+15
1.76708e+15
1.88605e+15
2.03754e+15
2.16288e+15
2.26093e+15
2.39677e+15
2.45975e+15
2.61153e+15
2.71875e+15
2.78125e+15
2.87747e+15
2.95077e+15
3.07029e+15
3.15061e+15
3.19862e+15
3.3162e+15
3.36358e+15
3.39215e+15
3.5105e+15
3.52768e+15
3.55632e+15
3.64865e+15
3.64781e+15
3.66729e+15
3.71474e+15
3.74353e+15
3.76591e+15
3.75488e+15
3.76606e+15
3.75407e+15
3.78622e+15
3.77583e+15
3.71586e+15
3.72007e+15
3.70489e+15
3.66566e+15
3.61605e+15
3.61153e+15
3.53402e+15
3.46976e+15
3.4156e+15
3.34408e+15
3.26409e+15
3.19966e+15
3.13019e+15
3.05511e+15
2.9494e+15
2.8829e+15
2.75552e+15
2.65715e+15
2.58296e+15
2.44239e+15
2.34972e+15
2.23168e+15
2.14112e+15
1.99952e+15
1.88283e+15
1.75826e+15
1.61464e+15
1.53139e+15
1.38371e+15
1.2274e+15
1.10378e+15
9.7325e+14
8.31049e+14
6.8221e+14
5.26554e+14
3.82511e+14
2.28626e+14
2.4809e+14
4.05881e+14
5.66803e+14
7.22008e+14
8.82828e+14
1.03331e+15
1.16696e+15
1.30445e+15
1.42943e+15
1.5791e+15
1.74452e+15
1.83889e+15
1.99671e+15
2.12868e+15
2.24484e+15
2.35818e+15
2.50265e+15
2.59703e+15
2.71345e+15
2.83594e+15
2.92796e+15
3.03718e+15
3.1445e+15
3.1997e+15
3.27679e+15
3.38518e+15
3.45915e+15
3.56683e+15
3.58301e+15
3.67598e+15
3.72934e+15
3.77758e+15
3.82022e+15
3.82756e+15
3.862e+15
3.87579e+15
3.95506e+15
3.96519e+15
3.97289e+15
3.9732e+15
4.00227e+15
3.96022e+15
3.96678e+15
3.89929e+15
3.90291e+15
3.87818e+15
3.84243e+15
3.79072e+15
3.79474e+15
3.70113e+15
3.6586e+15
3.56151e+15
3.53997e+15
3.47056e+15
3.38644e+15
3.31446e+15
3.20399e+15
3.08027e+15
2.9841e+15
2.89298e+15
2.84789e+15
2.68036e+15
2.57471e+15
2.47243e+15
2.34775e+15
2.22761e+15
2.11772e+15
1.95129e+15
1.86038e+15
1.74157e+15
1.60576e+15
1.44098e+15
1.29183e+15
1.14916e+15
1.01268e+15
8.57489e+14
7.08081e+14
5.57553e+14
4.01201e+14
2.4366e+14
2.59104e+14
4.28867e+14
5.93499e+14
7.62728e+14
9.05212e+14
1.06751e+15
1.20098e+15
1.34217e+15
1.49804e+15
1.68601e+15
1.818e+15
1.91939e+15
2.08876e+15
2.241e+15
2.37644e+15
2.49191e+15
2.61853e+15
2.74309e+15
2.85032e+15
2.95547e+15
3.10054e+15
3.16667e+15
3.27043e+15
3.35766e+15
3.47531e+15
3.54918e+15
3.6357e+15
3.71418e+15
3.76362e+15
3.8959e+15
3.88414e+15
3.95075e+15
3.98608e+15
3.98161e+15
4.03811e+15
4.06116e+15
4.11657e+15
4.11722e+15
4.14924e+15
4.15559e+15
4.13979e+15
4.15887e+15
4.13505e+15
4.10553e+15
4.08361e+15
4.01788e+15
4.04558e+15
3.99261e+15
3.94736e+15
3.87387e+15
3.79571e+15
3.7616e+15
3.69165e+15
3.6061e+15
3.54769e+15
3.44045e+15
3.35591e+15
3.23522e+15
3.14865e+15
3.05465e+15
2.94328e+15
2.80482e+15
2.70058e+15
2.6041e+15
2.4812e+15
2.31603e+15
2.18818e+15
2.08437e+15
1.93275e+15
1.80617e+15
1.67905e+15
1.50149e+15
1.36747e+15
1.2321e+15
1.05266e+15
8.98127e+14
7.25568e+14
5.86053e+14
4.26439e+14
2.58769e+14
2.79808e+14
4.62478e+14
6.13112e+14
7.90051e+14
9.26586e+14
1.11838e+15
1.28222e+15
1.40748e+15
1.60855e+15
1.74848e+15
1.8618e+15
2.03126e+15
2.15609e+15
2.34191e+15
2.49043e+15
2.60154e+15
2.75194e+15
2.86936e+15
2.97042e+15
3.10018e+15
3.18424e+15
3.29787e+15
3.3818e+15
3.5572e+15
3.64775e+15
3.6952e+15
3.76426e+15
3.85162e+15
3.91292e+15
4.01015e+15
4.04416e+15
4.11473e+15
4.14455e+15
4.20949e+15
4.22357e+15
4.25521e+15
4.28515e+15
4.33304e+15
4.29144e+15
4.3238e+15
4.31162e+15
4.28892e+15
4.34469e+15
4.26471e+15
4.27988e+15
4.22977e+15
4.23887e+15
4.18828e+15
4.12178e+15
4.02898e+15
3.96665e+15
3.91969e+15
3.87605e+15
3.78529e+15
3.67653e+15
3.61753e+15
3.48713e+15
3.40004e+15
3.27603e+15
3.19954e+15
3.05509e+15
2.92783e+15
2.79172e+15
2.73231e+15
2.59632e+15
2.44514e+15
2.3148e+15
2.19164e+15
2.01189e+15
1.88169e+15
1.73712e+15
1.57129e+15
1.41576e+15
1.27189e+15
1.10815e+15
9.33332e+14
7.78338e+14
6.09944e+14
4.36444e+14
2.69803e+14
2.77335e+14
4.7832e+14
6.6854e+14
8.10818e+14
9.78264e+14
1.16941e+15
1.32001e+15
1.49461e+15
1.64693e+15
1.81379e+15
1.94917e+15
2.10831e+15
2.27785e+15
2.42261e+15
2.57636e+15
2.71562e+15
2.87211e+15
2.99362e+15
3.12706e+15
3.24779e+15
3.33954e+15
3.44867e+15
3.51332e+15
3.67271e+15
3.7799e+15
3.84557e+15
3.93148e+15
4.00951e+15
4.072e+15
4.1767e+15
4.23471e+15
4.30364e+15
4.32414e+15
4.33357e+15
4.39962e+15
4.45114e+15
4.49341e+15
4.47056e+15
4.50073e+15
4.49549e+15
4.47678e+15
4.50081e+15
4.50608e+15
4.49023e+15
4.46661e+15
4.40468e+15
4.36909e+15
4.30531e+15
4.26268e+15
4.19864e+15
4.17442e+15
4.09465e+15
4.03845e+15
3.9457e+15
3.82976e+15
3.77042e+15
3.64795e+15
3.5676e+15
3.43354e+15
3.33149e+15
3.22615e+15
3.09367e+15
2.94994e+15
2.83069e+15
2.72007e+15
2.56518e+15
2.43275e+15
2.27668e+15
2.11144e+15
1.96232e+15
1.8358e+15
1.627e+15
1.48086e+15
1.29901e+15
1.1482e+15
9.75469e+14
8.13139e+14
6.35051e+14
4.57479e+14
2.84774e+14
2.97143e+14
5.0652e+14
6.77016e+14
8.4084e+14
1.04383e+15
1.2164e+15
1.37618e+15
1.54626e+15
1.68306e+15
1.86993e+15
2.01829e+15
2.18168e+15
2.36503e+15
2.50524e+15
2.67513e+15
2.84278e+15
2.96838e+15
3.12615e+15
3.23904e+15
3.34241e+15
3.46829e+15
3.58441e+15
3.69737e+15
3.79791e+15
3.92139e+15
4.05232e+15
4.09289e+15
4.16728e+15
4.25458e+15
4.35106e+15
4.40585e+15
4.4334e+15
4.52797e+15
4.58887e+15
4.58778e+15
4.6488e+15
4.6483e+15
4.6966e+15
4.68415e+15
4.68253e+15
4.66663e+15
4.68001e+15
4.6738e+15
4.69887e+15
4.61459e+15
4.61305e+15
4.5246e+15
4.47088e+15
4.42868e+15
4.4016e+15
4.35162e+15
4.2389e+15
4.14067e+15
4.06732e+15
3.97947e+15
3.87522e+15
3.75788e+15
3.67106e+15
3.55258e+15
3.44913e+15
3.33638e+15
3.21438e+15
3.04397e+15
2.9612e+15
2.79853e+15
2.64866e+15
2.49761e+15
2.3665e+15
2.1822e+15
2.05306e+15
1.8873e+15
1.69541e+15
1.54379e+15
1.3606e+15
1.2031e+15
1.01462e+15
8.26261e+14
6.54026e+14
4.83967e+14
2.99171e+14
3.10385e+14
5.20593e+14
7.13287e+14
9.01653e+14
1.06804e+15
1.26287e+15
1.42468e+15
1.59187e+15
1.76633e+15
1.9745e+15
2.11734e+15
2.30877e+15
2.47335e+15
2.60026e+15
2.77321e+15
2.89696e+15
3.07092e+15
3.21926e+15
3.34827e+15
3.46134e+15
3.6007e+15
3.72818e+15
3.8598e+15
3.9759e+15
4.05867e+15
4.16072e+15
4.28784e+15
4.33577e+15
4.39155e+15
4.4436e+15
4.57531e+15
4.60429e+15
4.65085e+15
4.7328e+15
4.78041e+15
4.81272e+15
4.80844e+15
4.85904e+15
4.8547e+15
4.8954e+15
4.86609e+15
4.8464e+15
4.80685e+15
4.83283e+15
4.79391e+15
4.76799e+15
4.69109e+15
4.62086e+15
4.62831e+15
4.54082e+15
4.48383e+15
4.40197e+15
4.33858e+15
4.20561e+15
4.13998e+15
4.05756e+15
3.88783e+15
3.78465e+15
3.71646e+15
3.58323e+15
3.46306e+15
3.34432e+15
3.17052e+15
3.08105e+15
2.93595e+15
2.76641e+15
2.59397e+15
2.44101e+15
2.2889e+15
2.10739e+15
1.93223e+15
1.77633e+15
1.6252e+15
1.41349e+15
1.26672e+15
1.05634e+15
8.71978e+14
6.89411e+14
5.01553e+14
2.90424e+14
3.21384e+14
5.25569e+14
7.36489e+14
9.11284e+14
1.10549e+15
1.30375e+15
1.49407e+15
1.66853e+15
1.84789e+15
2.02408e+15
2.18234e+15
2.36267e+15
2.53074e+15
2.70536e+15
2.87374e+15
3.04462e+15
3.19821e+15
3.29238e+15
3.45275e+15
3.59591e+15
3.74676e+15
3.85645e+15
3.98165e+15
4.10413e+15
4.18479e+15
4.28344e+15
4.39532e+15
4.4861e+15
4.53407e+15
4.6416e+15
4.69863e+15
4.75894e+15
4.82646e+15
4.88709e+15
4.93868e+15
5.00996e+15
5.00578e+15
5.01442e+15
5.02875e+15
5.00685e+15
5.01525e+15
5.03626e+15
5.05122e+15
5.01291e+15
5.00125e+15
4.98306e+15
4.875e+15
4.80625e+15
4.75995e+15
4.68447e+15
4.63859e+15
4.57687e+15
4.48539e+15
4.40234e+15
4.26979e+15
4.22635e+15
4.06939e+15
3.95734e+15
3.83354e+15
3.70708e+15
3.56033e+15
3.4799e+15
3.29431e+15
3.16242e+15
3.00743e+15
2.87386e+15
2.69502e+15
2.52293e+15
2.35649e+15
2.1931e+15
2.01302e+15
1.83606e+15
1.63268e+15
1.45438e+15
1.28725e+15
1.08204e+15
9.0823e+14
7.13637e+14
5.18312e+14
3.01103e+14
3.2966e+14
5.4271e+14
7.48358e+14
9.52953e+14
1.14698e+15
1.34511e+15
1.5352e+15
1.73061e+15
1.89072e+15
2.0836e+15
2.29201e+15
2.45908e+15
2.629e+15
2.79246e+15
2.96089e+15
3.11649e+15
3.27375e+15
3.38568e+15
3.59082e+15
3.7068e+15
3.79156e+15
3.96142e+15
4.08335e+15
4.19847e+15
4.32434e+15
4.42726e+15
4.55346e+15
4.63711e+15
4.71236e+15
4.77757e+15
4.88522e+15
4.9828e+15
5.01503e+15
5.03709e+15
5.12452e+15
5.11906e+15
5.18518e+15
5.21159e+15
5.21821e+15
5.243e+15
5.21559e+15
5.22338e+15
5.17498e+15
5.20916e+15
5.16486e+15
5.09653e+15
5.05933e+15
4.99979e+15
4.96991e+15
4.89534e+15
4.79729e+15
4.72516e+15
4.63236e+15
4.52081e+15
4.44673e+15
4.33688e+15
4.22296e+15
4.06209e+15
3.95557e+15
3.80823e+15
3.63952e+15
3.54858e+15
3.40316e+15
3.26444e+15
3.11959e+15
2.96357e+15
2.81822e+15
2.63211e+15
2.47187e+15
2.26649e+15
2.07972e+15
1.90261e+15
1.67985e+15
1.52337e+15
1.32174e+15
1.1228e+15
9.27772e+14
7.35397e+14
5.3654e+14
3.18719e+14
3.40975e+14
5.5096e+14
7.72912e+14
9.90293e+14
1.18763e+15
1.37096e+15
1.57108e+15
1.76707e+15
1.97916e+15
2.13288e+15
2.3208e+15
2.51733e+15
2.68926e+15
2.88147e+15
3.06143e+15
3.19769e+15
3.37197e+15
3.50798e+15
3.65014e+15
3.82056e+15
3.97598e+15
4.08422e+15
4.23266e+15
4.34112e+15
4.50686e+15
4.56261e+15
4.68696e+15
4.7772e+15
4.83506e+15
4.92743e+15
5.00653e+15
5.07498e+15
5.17043e+15
5.23491e+15
5.21243e+15
5.30088e+15
5.30253e+15
5.38443e+15
5.38047e+15
5.38495e+15
5.39344e+15
5.39081e+15
5.3589e+15
5.33705e+15
5.34747e+15
5.33008e+15
5.18179e+15
5.191e+15
5.0946e+15
5.05092e+15
4.95634e+15
4.90531e+15
4.76922e+15
4.65684e+15
4.56314e+15
4.4675e+15
4.34431e+15
4.22473e+15
4.09475e+15
3.9489e+15
3.81032e+15
3.67589e+15
3.52751e+15
3.33868e+15
3.1933e+15
3.03503e+15
2.86506e+15
2.69737e+15
2.50358e+15
2.31152e+15
2.09926e+15
1.96815e+15
1.75261e+15
1.5634e+15
1.36439e+15
1.17081e+15
9.71535e+14
7.60885e+14
5.42955e+14
3.30392e+14
3.47413e+14
5.68943e+14
7.9015e+14
1.01528e+15
1.21694e+15
1.40719e+15
1.6227e+15
1.82394e+15
2.02862e+15
2.22118e+15
2.43352e+15
2.58912e+15
2.80125e+15
2.95351e+15
3.10454e+15
3.30563e+15
3.4475e+15
3.62887e+15
3.76841e+15
3.95319e+15
4.08672e+15
4.1878e+15
4.33288e+15
4.49088e+15
4.5817e+15
4.73081e+15
4.85563e+15
4.91608e+15
5.02385e+15
5.07705e+15
5.18245e+15
5.29478e+15
5.33111e+15
5.37391e+15
5.37675e+15
5.45886e+15
5.49782e+15
5.49452e+15
5.49982e+15
5.57302e+15
5.58774e+15
5.53445e+15
5.50853e+15
5.55618e+15
5.50006e+15
5.46137e+15
5.30425e+15
5.3199e+15
5.28457e+15
5.1994e+15
5.10909e+15
5.04226e+15
4.92788e+15
4.81318e+15
4.67957e+15
4.61009e+15
4.47408e+15
4.33384e+15
4.20902e+15
4.08828e+15
3.93461e+15
3.75582e+15
3.61569e+15
3.45647e+15
3.26877e+15
3.15333e+15
2.99192e+15
2.75633e+15
2.58208e+15
2.39629e+15
2.1981e+15
2.00876e+15
1.8121e+15
1.5959e+15
1.41573e+15
1.19619e+15
9.98454e+14
7.72552e+14
5.58778e+14
3.32245e+14
3.5586e+14
5.87853e+14
8.19463e+14
1.04012e+15
1.24685e+15
1.45529e+15
1.68062e+15
1.89505e+15
2.07364e+15
2.31072e+15
2.49739e+15
2.664e+15
2.86252e+15
3.0388e+15
3.20455e+15
3.39333e+15
3.55224e+15
3.696e+15
3.88827e+15
4.03953e+15
4.18343e+15
4.32061e+15
4.46961e+15
4.64819e+15
4.72918e+15
4.81773e+15
4.97685e+15
5.049e+15
5.1263e+15
5.22163e+15
5.29904e+15
5.36003e+15
5.46266e+15
5.50405e+15
5.59096e+15
5.62842e+15
5.68804e+15
5.68935e+15
5.69389e+15
5.74991e+15
5.74391e+15
5.69801e+15
5.70396e+15
5.67815e+15
5.60949e+15
5.5611e+15
5.53157e+15
5.46056e+15
5.43257e+15
5.33199e+15
5.28145e+15
5.15361e+15
5.04886e+15
4.96808e+15
4.86072e+15
4.69317e+15
4.60776e+15
4.47938e+15
4.34417e+15
4.21469e+15
4.02356e+15
3.87307e+15
3.7408e+15
3.56373e+15
3.41364e+15
3.22427e+15
3.0035e+15
2.85062e+15
2.6423e+15
2.44294e+15
2.25211e+15
2.07989e+15
1.86483e+15
1.67166e+15
1.47381e+15
1.22478e+15
1.03107e+15
8.16896e+14
5.8833e+14
3.44388e+14
3.6227e+14
6.06909e+14
8.58354e+14
1.06454e+15
1.29123e+15
1.52308e+15
1.72743e+15
1.97041e+15
2.15613e+15
2.3484e+15
2.56278e+15
2.75091e+15
2.97074e+15
3.10372e+15
3.30365e+15
3.4976e+15
3.65175e+15
3.82573e+15
3.99174e+15
4.14521e+15
4.30378e+15
4.44366e+15
4.63493e+15
4.73564e+15
4.84915e+15
4.98158e+15
5.13802e+15
5.18971e+15
5.25625e+15
5.41538e+15
5.47254e+15
5.54883e+15
5.6139e+15
5.6786e+15
5.74675e+15
5.83122e+15
5.85751e+15
5.85055e+15
5.84873e+15
5.82842e+15
5.87123e+15
5.88564e+15
5.8525e+15
5.79658e+15
5.75788e+15
5.7167e+15
5.67302e+15
5.645e+15
5.54476e+15
5.46851e+15
5.35931e+15
5.29321e+15
5.18615e+15
5.08066e+15
4.99472e+15
4.87133e+15
4.71776e+15
4.57557e+15
4.44377e+15
4.28563e+15
4.1493e+15
3.99481e+15
3.84427e+15
3.69358e+15
3.49012e+15
3.31614e+15
3.10661e+15
2.92572e+15
2.68976e+15
2.49616e+15
2.29232e+15
2.12502e+15
1.93385e+15
1.71399e+15
1.49511e+15
1.2697e+15
1.06644e+15
8.33111e+14
5.96982e+14
3.55449e+14
3.67584e+14
6.32211e+14
8.68546e+14
1.10673e+15
1.33414e+15
1.53975e+15
1.76148e+15
2.00146e+15
2.20119e+15
2.40404e+15
2.61224e+15
2.85483e+15
3.02608e+15
3.21316e+15
3.41564e+15
3.58245e+15
3.75054e+15
3.92003e+15
4.09067e+15
4.2671e+15
4.38203e+15
4.56829e+15
4.68424e+15
4.86385e+15
4.97478e+15
5.0741e+15
5.22543e+15
5.31966e+15
5.44648e+15
5.54673e+15
5.65369e+15
5.69269e+15
5.74288e+15
5.87936e+15
5.8822e+15
5.94529e+15
5.96259e+15
5.98854e+15
6.00345e+15
5.95597e+15
6.01366e+15
5.96691e+15
5.9691e+15
5.95516e+15
5.92537e+15
5.88597e+15
5.79016e+15
5.72412e+15
5.69954e+15
5.61255e+15
5.5522e+15
5.42991e+15
5.33518e+15
5.21457e+15
5.11569e+15
4.97519e+15
4.80805e+15
4.66995e+15
4.56e+15
4.40425e+15
4.25878e+15
4.05575e+15
3.91719e+15
3.79229e+15
3.56413e+15
3.37979e+15