/*--------------------------------*- C++ -*----------------------------------*\
  =========                 |
  \\      /  F ield         | OpenFOAM: The Open Source CFD Toolbox
   \\    /   O peration     | Website:  https://openfoam.org
    \\  /    A nd           | Version:  6
     \\/     M anipulation  |
\*---------------------------------------------------------------------------*/
FoamFile
{
    version     2.0;
    format      ascii;
    class       surfaceScalarField;
    location    "600";
    object      phi;
}
// * * * * * * * * * * * * * * * * * * * * * * * * * * * * * * * * * * * * * //

dimensions      [0 3 -1 0 0 0 0];

internalField   nonuniform List<scalar> 
12640
(
9.34339e-08
-9.80641e-08
2.2439e-07
-1.55592e-07
3.3276e-07
-1.22966e-07
3.68721e-07
-3.89187e-08
3.06391e-07
6.88004e-08
1.37585e-07
1.85281e-07
-1.37853e-07
3.02048e-07
-5.15758e-07
4.14289e-07
-9.89496e-07
5.19299e-07
-1.55109e-06
6.15593e-07
-2.19188e-06
7.02419e-07
-2.90294e-06
7.79467e-07
-3.67532e-06
8.46711e-07
-4.5002e-06
9.04303e-07
-5.36903e-06
9.52506e-07
-6.27355e-06
9.91654e-07
-7.20584e-06
1.02212e-06
-8.15834e-06
1.04429e-06
-9.12384e-06
1.05857e-06
-1.00955e-05
1.06534e-06
-1.10668e-05
1.06497e-06
-1.20316e-05
1.05784e-06
-1.29841e-05
1.04428e-06
-1.39185e-05
1.02461e-06
-1.48298e-05
9.99138e-07
-1.57127e-05
9.68139e-07
-1.65626e-05
9.31884e-07
-1.73748e-05
8.9062e-07
-1.81451e-05
8.44589e-07
-1.88692e-05
7.9402e-07
-1.95433e-05
7.3914e-07
-2.01636e-05
6.80173e-07
-2.07266e-05
6.17349e-07
-2.12291e-05
5.50902e-07
-2.16678e-05
4.81076e-07
-2.20399e-05
4.08131e-07
-2.2343e-05
3.32341e-07
-2.25747e-05
2.54003e-07
-2.27328e-05
1.73435e-07
-2.28158e-05
9.09764e-08
-2.28222e-05
6.99498e-09
-2.27509e-05
-7.80557e-08
-2.26015e-05
-1.6369e-07
-2.2374e-05
-2.4945e-07
-2.20687e-05
-3.34836e-07
-2.16862e-05
-4.19319e-07
-2.1228e-05
-5.02333e-07
-2.0696e-05
-5.83288e-07
-2.00926e-05
-6.61569e-07
-1.94208e-05
-7.36541e-07
-1.86843e-05
-8.07557e-07
-1.78871e-05
-8.73958e-07
-1.70343e-05
-9.35086e-07
-1.61311e-05
-9.90286e-07
-1.51835e-05
-1.03892e-06
-1.41982e-05
-1.08036e-06
-1.31821e-05
-1.11401e-06
-1.2143e-05
-1.13932e-06
-1.10888e-05
-1.15578e-06
-1.00281e-05
-1.16292e-06
-8.96975e-06
-1.16034e-06
-7.92291e-06
-1.14771e-06
-6.89696e-06
-1.12478e-06
-5.90148e-06
-1.09136e-06
-4.94611e-06
-1.04737e-06
-4.04045e-06
-9.9284e-07
-3.19402e-06
-9.27886e-07
-2.41608e-06
-8.52765e-07
-1.71556e-06
-7.67884e-07
-1.10082e-06
-6.73833e-07
-5.7947e-07
-5.71442e-07
-1.58084e-07
-4.61874e-07
1.58268e-07
-3.46775e-07
3.66708e-07
-2.28549e-07
4.67674e-07
-1.10826e-07
4.66754e-07
6.99404e-10
3.78261e-07
9.68441e-08
2.34424e-07
1.62479e-07
8.96765e-08
1.71274e-07
9.30674e-08
1.86468e-07
-2.61965e-07
4.27803e-07
-3.98324e-07
5.7887e-07
-2.71936e-07
5.34069e-07
8.17187e-09
2.32016e-07
3.66863e-07
-3.51915e-07
7.58283e-07
-1.22238e-06
1.15465e-06
-2.37185e-06
1.53918e-06
-3.78523e-06
1.90177e-06
-5.44283e-06
2.23648e-06
-7.32233e-06
2.53994e-06
-9.40003e-06
2.81053e-06
-1.16517e-05
3.04765e-06
-1.4053e-05
3.25145e-06
-1.65801e-05
3.42256e-06
-1.92098e-05
3.56194e-06
-2.19196e-05
3.67067e-06
-2.46881e-05
3.75001e-06
-2.74943e-05
3.80124e-06
-3.03185e-05
3.82564e-06
-3.31419e-05
3.82448e-06
-3.59467e-05
3.799e-06
-3.87154e-05
3.75039e-06
-4.14321e-05
3.67975e-06
-4.40811e-05
3.58815e-06
-4.66477e-05
3.4766e-06
-4.91178e-05
3.34605e-06
-5.1478e-05
3.19741e-06
-5.37157e-05
3.03155e-06
-5.58186e-05
2.84932e-06
-5.77754e-05
2.65155e-06
-5.9575e-05
2.43907e-06
-6.12074e-05
2.21275e-06
-6.2663e-05
1.97343e-06
-6.39328e-05
1.72203e-06
-6.50087e-05
1.45952e-06
-6.58831e-05
1.1869e-06
-6.65495e-05
9.05264e-07
-6.70022e-05
6.15786e-07
-6.72363e-05
3.19719e-07
-6.72481e-05
1.84314e-08
-6.70349e-05
-2.86505e-07
-6.65952e-05
-5.93407e-07
-6.5929e-05
-9.00589e-07
-6.50375e-05
-1.20625e-06
-6.39231e-05
-1.5085e-06
-6.25898e-05
-1.80531e-06
-6.10434e-05
-2.09457e-06
-5.92911e-05
-2.37411e-06
-5.73417e-05
-2.64168e-06
-5.52057e-05
-2.89498e-06
-5.28955e-05
-3.1317e-06
-5.0425e-05
-3.3495e-06
-4.78098e-05
-3.54609e-06
-4.50671e-05
-3.71922e-06
-4.22158e-05
-3.86671e-06
-3.92765e-05
-3.98648e-06
-3.62709e-05
-4.07657e-06
-3.32221e-05
-4.13521e-06
-3.01545e-05
-4.16083e-06
-2.70933e-05
-4.15203e-06
-2.40645e-05
-4.10769e-06
-2.10949e-05
-4.02698e-06
-1.82114e-05
-3.90935e-06
-1.54414e-05
-3.75459e-06
-1.28119e-05
-3.56288e-06
-1.03493e-05
-3.33484e-06
-8.07946e-06
-3.07154e-06
-6.02673e-06
-2.77464e-06
-4.21371e-06
-2.44653e-06
-2.66049e-06
-2.09047e-06
-1.38373e-06
-1.71102e-06
-3.95315e-07
-1.31447e-06
2.99541e-07
-9.09719e-07
7.05195e-07
-5.09712e-07
8.39872e-07
-1.33772e-07
7.42791e-07
1.88631e-07
4.89644e-07
4.11897e-07
1.95989e-07
4.66296e-07
2.65239e-07
2.06152e-07
-4.509e-07
4.3541e-07
-6.30801e-07
4.91341e-07
-3.27207e-07
2.38033e-07
2.64459e-07
-4.08254e-07
1.0124e-06
-1.48535e-06
1.83071e-06
-3.00335e-06
2.66414e-06
-4.95396e-06
3.47754e-06
-7.31672e-06
4.24877e-06
-1.00633e-05
4.9641e-06
-1.31606e-05
5.61536e-06
-1.65726e-05
6.19811e-06
-2.02619e-05
6.71035e-06
-2.41909e-05
7.15179e-06
-2.83218e-05
7.52329e-06
-3.26177e-05
7.82646e-06
-3.70429e-05
8.06342e-06
-4.15625e-05
8.23653e-06
-4.61433e-05
8.34842e-06
-5.07533e-05
8.40172e-06
-5.53618e-05
8.39905e-06
-5.99394e-05
8.34302e-06
-6.44583e-05
8.23614e-06
-6.88919e-05
8.08079e-06
-7.32148e-05
7.87929e-06
-7.74028e-05
7.6338e-06
-8.14329e-05
7.34644e-06
-8.52831e-05
7.0192e-06
-8.89324e-05
6.65402e-06
-9.23611e-05
6.25278e-06
-9.55505e-05
5.81735e-06
-9.84826e-05
5.3496e-06
-0.000101141
4.85144e-06
-0.00010351
4.32481e-06
-0.000105575
3.77177e-06
-0.000107323
3.19445e-06
-0.000108742
2.59513e-06
-0.000109821
1.97626e-06
-0.000110551
1.34045e-06
-0.000110925
6.90507e-07
-0.000110936
2.94763e-08
-0.000110581
-6.39245e-07
-0.000109857
-1.31203e-06
-0.000108764
-1.98514e-06
-0.000107305
-2.65464e-06
-0.000105484
-3.31633e-06
-0.000103307
-3.96583e-06
-0.000100785
-4.59854e-06
-9.7928e-05
-5.20972e-06
-9.47518e-05
-5.79447e-06
-9.12732e-05
-6.34783e-06
-8.75122e-05
-6.86475e-06
-8.34917e-05
-7.34024e-06
-7.92369e-05
-7.7693e-06
-7.47758e-05
-8.14709e-06
-7.01392e-05
-8.46891e-06
-6.53598e-05
-8.7303e-06
-6.04729e-05
-8.92708e-06
-5.55158e-05
-9.05545e-06
-5.05275e-05
-9.11204e-06
-4.55486e-05
-9.09394e-06
-4.0621e-05
-8.99881e-06
-3.57873e-05
-8.82492e-06
-3.10907e-05
-8.57124e-06
-2.65745e-05
-8.2375e-06
-2.22817e-05
-7.82427e-06
-1.82541e-05
-7.33312e-06
-1.45321e-05
-6.76671e-06
-1.11537e-05
-6.12899e-06
-8.1537e-06
-5.42559e-06
-5.56247e-06
-4.66414e-06
-3.4045e-06
-3.85508e-06
-1.69628e-06
-3.01259e-06
-4.43447e-07
-2.15632e-06
3.63245e-07
-1.31398e-06
7.53508e-07
-5.25312e-07
7.85686e-07
1.51829e-07
5.63407e-07
6.32975e-07
2.37194e-07
7.96829e-07
4.82448e-07
1.71571e-07
-6.139e-07
2.95086e-07
-7.6105e-07
1.48434e-07
-1.842e-07
-4.18101e-07
8.31657e-07
-1.49996e-06
2.09476e-06
-3.1435e-06
3.47482e-06
-5.36293e-06
4.88431e-06
-8.14983e-06
6.26528e-06
-1.148e-05
7.57981e-06
-1.53184e-05
8.80353e-06
-1.96234e-05
9.92128e-06
-2.43485e-05
1.09243e-05
-2.94452e-05
1.18081e-05
-3.48637e-05
1.25714e-05
-4.05543e-05
1.3215e-05
-4.64677e-05
1.37409e-05
-5.25556e-05
1.41524e-05
-5.87713e-05
1.44533e-05
-6.50694e-05
1.46476e-05
-7.14063e-05
1.47398e-05
-7.77403e-05
1.47342e-05
-8.40315e-05
1.46352e-05
-9.02414e-05
1.4447e-05
-9.63334e-05
1.41738e-05
-0.000102273
1.38195e-05
-0.000108026
1.33879e-05
-0.000113561
1.28827e-05
-0.000118848
1.23074e-05
-0.000123859
1.16653e-05
-0.000128565
1.09599e-05
-0.000132942
1.01945e-05
-0.000136964
9.3724e-06
-0.000140609
8.49698e-06
-0.000143855
7.57176e-06
-0.000146683
6.60039e-06
-0.000149075
5.58668e-06
-0.000151014
4.53471e-06
-0.000152486
3.44881e-06
-0.000153479
2.33361e-06
-0.000153983
1.19413e-06
-0.000153989
3.57314e-08
-0.000153493
-1.13567e-06
-0.000152491
-2.3138e-06
-0.000150984
-3.49208e-06
-0.000148976
-4.66358e-06
-0.000146471
-5.821e-06
-0.000143481
-6.95665e-06
-0.000140017
-8.06258e-06
-0.000136097
-9.13049e-06
-0.00013174
-1.01519e-05
-0.000126971
-1.11182e-05
-0.000121816
-1.20207e-05
-0.000116306
-1.28506e-05
-0.000110477
-1.35995e-05
-0.000104366
-1.42588e-05
-9.80157e-05
-1.48206e-05
-9.147e-05
-1.52771e-05
-8.4777e-05
-1.56213e-05
-7.79871e-05
-1.58465e-05
-7.11534e-05
-1.5947e-05
-6.43305e-05
-1.5918e-05
-5.75751e-05
-1.57554e-05
-5.09447e-05
-1.54566e-05
-4.44973e-05
-1.50198e-05
-3.82911e-05
-1.44449e-05
-3.23833e-05
-1.37332e-05
-2.68297e-05
-1.28877e-05
-2.1684e-05
-1.19135e-05
-1.6996e-05
-1.0818e-05
-1.28111e-05
-9.61144e-06
-9.1683e-06
-8.30781e-06
-6.09836e-06
-6.92578e-06
-3.62118e-06
-5.49043e-06
-1.74223e-06
-4.03577e-06
-4.47998e-07
-2.6085e-06
2.99961e-07
-1.27351e-06
5.73076e-07
-1.21857e-07
4.91625e-07
7.18937e-07
2.25502e-07
1.07221e-06
6.95398e-07
9.94099e-08
-7.0998e-07
4.618e-08
-7.11488e-07
-3.88273e-07
2.47205e-07
-1.35483e-06
1.79844e-06
-2.95174e-06
3.69206e-06
-5.22911e-06
5.7529e-06
-8.20297e-06
7.85927e-06
-1.18642e-05
9.92792e-06
-1.61853e-05
1.19026e-05
-2.11259e-05
1.37461e-05
-2.66368e-05
1.54345e-05
-3.26631e-05
1.6953e-05
-3.91464e-05
1.82939e-05
-4.60263e-05
1.94541e-05
-5.32421e-05
2.04336e-05
-6.07333e-05
2.12349e-05
-6.84403e-05
2.18624e-05
-7.63051e-05
2.2321e-05
-8.42714e-05
2.26169e-05
-9.22845e-05
2.2756e-05
-0.000100292
2.2745e-05
-0.000108245
2.25903e-05
-0.000116093
2.22982e-05
-0.000123791
2.18749e-05
-0.000131295
2.13264e-05
-0.000138563
2.06585e-05
-0.000145554
1.98769e-05
-0.000152231
1.89869e-05
-0.000158557
1.79938e-05
-0.000164498
1.69028e-05
-0.000170021
1.57192e-05
-0.000175095
1.44482e-05
-0.00017969
1.3095e-05
-0.000183782
1.16651e-05
-0.000187345
1.01644e-05
-0.000190356
8.5986e-06
-0.000192794
6.97427e-06
-0.000194643
5.2981e-06
-0.000195886
3.57735e-06
-0.000196511
1.81979e-06
-0.00019651
3.37576e-08
-0.000195874
-1.77169e-06
-0.000194601
-3.58691e-06
-0.000192692
-5.4018e-06
-0.000190151
-7.20565e-06
-0.000186986
-8.98723e-06
-0.000183209
-1.07348e-05
-0.000178837
-1.2436e-05
-0.000173891
-1.40784e-05
-0.000168396
-1.56488e-05
-0.000162382
-1.71342e-05
-0.000155884
-1.85213e-05
-0.000148941
-1.97968e-05
-0.000141595
-2.09477e-05
-0.000133896
-2.19612e-05
-0.000125894
-2.28251e-05
-0.000117647
-2.35276e-05
-0.000109213
-2.40582e-05
-0.000100656
-2.44068e-05
-9.20417e-05
-2.4565e-05
-8.34377e-05
-2.45253e-05
-7.49144e-05
-2.4282e-05
-6.65432e-05
-2.3831e-05
-5.8396e-05
-2.31702e-05
-5.05444e-05
-2.22996e-05
-4.30589e-05
-2.12216e-05
-3.6008e-05
-1.99413e-05
-2.94571e-05
-1.8467e-05
-2.34667e-05
-1.68107e-05
-1.80914e-05
-1.49888e-05
-1.33778e-05
-1.30232e-05
-9.36211e-06
-1.0943e-05
-6.06698e-06
-8.78667e-06
-3.49807e-06
-6.60542e-06
-1.63906e-06
-4.46781e-06
-4.45921e-07
-2.46672e-06
1.60492e-07
-7.28462e-07
3.08291e-07
5.75384e-07
1.75e-07
1.21279e-06
8.62099e-07
1.68308e-09
-7.13866e-07
-2.80915e-07
-4.27518e-07
-1.07052e-06
1.03542e-06
-2.50889e-06
3.23683e-06
-4.68955e-06
5.87289e-06
-7.66178e-06
8.72538e-06
-1.14407e-05
1.16386e-05
-1.60153e-05
1.45029e-05
-2.13545e-05
1.72424e-05
-2.74131e-05
1.98052e-05
-3.41354e-05
2.21573e-05
-4.14587e-05
2.42769e-05
-4.93159e-05
2.61517e-05
-5.76374e-05
2.77762e-05
-6.63525e-05
2.91492e-05
-7.53904e-05
3.02734e-05
-8.46813e-05
3.11538e-05
-9.41566e-05
3.17968e-05
-0.00010375
3.22104e-05
-0.000113396
3.24027e-05
-0.000123033
3.23825e-05
-0.0001326
3.21584e-05
-0.000142041
3.17393e-05
-0.000151299
3.11339e-05
-0.000160323
3.03504e-05
-0.000169061
2.93969e-05
-0.000177466
2.82815e-05
-0.00018549
2.70118e-05
-0.000193091
2.55953e-05
-0.000200227
2.40397e-05
-0.00020686
2.23521e-05
-0.000212951
2.05402e-05
-0.000218468
1.86117e-05
-0.000223377
1.65744e-05
-0.000227648
1.44366e-05
-0.000231257
1.22069e-05
-0.000234177
9.89436e-06
-0.000236387
7.50883e-06
-0.00023787
5.06069e-06
-0.000238611
2.561e-06
-0.0002386
2.17131e-08
-0.000237827
-2.54435e-06
-0.000236291
-5.12356e-06
-0.000233991
-7.70152e-06
-0.000230934
-1.02631e-05
-0.000227128
-1.27923e-05
-0.00022259
-1.52725e-05
-0.000217341
-1.76865e-05
-0.000211403
-2.00164e-05
-0.000204809
-2.22438e-05
-0.000197593
-2.43504e-05
-0.000189797
-2.63173e-05
-0.000181468
-2.81261e-05
-0.000172658
-2.97583e-05
-0.000163423
-3.11962e-05
-0.000153826
-3.24226e-05
-0.000143933
-3.34211e-05
-0.000133815
-3.41769e-05
-0.000123547
-3.46759e-05
-0.000113206
-3.49066e-05
-0.000102873
-3.48587e-05
-9.26309e-05
-3.45244e-05
-8.25643e-05
-3.38982e-05
-7.27575e-05
-3.29776e-05
-6.32948e-05
-3.1763e-05
-5.42588e-05
-3.02582e-05
-4.57296e-05
-2.84711e-05
-3.7783e-05
-2.64141e-05
-3.04897e-05
-2.41045e-05
-2.39125e-05
-2.15665e-05
-1.81047e-05
-1.88314e-05
-1.31075e-05
-1.59406e-05
-8.94658e-06
-1.29479e-05
-5.62852e-06
-9.92367e-06
-3.13603e-06
-6.96036e-06
-1.42266e-06
-4.18016e-06
-4.06257e-07
-1.74511e-06
4.1821e-08
1.30108e-07
9.69375e-08
1.16091e-06
9.55254e-07
-1.13023e-07
-6.09702e-07
-6.63314e-07
1.29811e-07
-1.86064e-06
2.2331e-06
-3.82968e-06
5.20551e-06
-6.65288e-06
8.69612e-06
-1.03745e-05
1.24472e-05
-1.50061e-05
1.62703e-05
-2.05328e-05
2.00298e-05
-2.69197e-05
2.36294e-05
-3.41162e-05
2.70019e-05
-4.20605e-05
3.01017e-05
-5.06831e-05
3.28997e-05
-5.9909e-05
3.53776e-05
-6.96599e-05
3.7527e-05
-7.9856e-05
3.93455e-05
-9.04174e-05
4.08348e-05
-0.000101265
4.2001e-05
-0.00011232
4.28517e-05
-0.000123506
4.33965e-05
-0.000134749
4.36458e-05
-0.000145977
4.36109e-05
-0.000157122
4.33027e-05
-0.000168115
4.27331e-05
-0.000178895
4.19131e-05
-0.000189398
4.08539e-05
-0.000199567
3.9566e-05
-0.000209346
3.80602e-05
-0.000218681
3.6347e-05
-0.000227522
3.44361e-05
-0.000235821
3.23382e-05
-0.000243531
3.00628e-05
-0.000250612
2.76203e-05
-0.000257022
2.50213e-05
-0.000262723
2.22762e-05
-0.000267683
1.93965e-05
-0.00027187
1.63938e-05
-0.000275256
1.32805e-05
-0.000277817
1.00699e-05
-0.000279532
6.77592e-06
-0.000280385
3.41368e-06
-0.000280363
-7.72694e-10
-0.000279458
-3.45024e-06
-0.000277664
-6.91643e-06
-0.000274985
-1.03801e-05
-0.000271428
-1.38208e-05
-0.000267002
-1.72173e-05
-0.000261727
-2.05473e-05
-0.000255626
-2.37877e-05
-0.000248728
-2.69147e-05
-0.000241068
-2.99038e-05
-0.000232688
-3.27306e-05
-0.000223635
-3.537e-05
-0.000213963
-3.77975e-05
-0.000203734
-3.99885e-05
-0.00019301
-4.19196e-05
-0.000181864
-4.35679e-05
-0.000170374
-4.49119e-05
-0.000158619
-4.59317e-05
-0.000146685
-4.66093e-05
-0.000134662
-4.6929e-05
-0.000122643
-4.68779e-05
-0.000110722
-4.64455e-05
-9.8995e-05
-4.56252e-05
-8.75588e-05
-4.44138e-05
-7.65091e-05
-4.28125e-05
-6.59402e-05
-4.08271e-05
-5.59427e-05
-3.84687e-05
-4.66026e-05
-3.57544e-05
-3.79991e-05
-3.27081e-05
-3.0203e-05
-2.93625e-05
-2.32743e-05
-2.57603e-05
-1.72589e-05
-2.19561e-05
-1.2186e-05
-1.80208e-05
-8.06424e-06
-1.40454e-05
-4.87745e-06
-1.01472e-05
-2.5797e-06
-6.47793e-06
-1.08998e-06
-3.23481e-06
-2.8525e-07
-6.73268e-07
-1.45593e-10
8.74298e-07
9.56972e-07
-2.38684e-07
-3.8736e-07
-1.08415e-06
9.88518e-07
-2.72972e-06
3.88091e-06
-5.27718e-06
7.75213e-06
-8.79284e-06
1.22117e-05
-1.33122e-05
1.69667e-05
-1.88404e-05
2.17986e-05
-2.53571e-05
2.65467e-05
-3.28221e-05
3.10945e-05
-4.11793e-05
3.53593e-05
-5.03609e-05
3.92835e-05
-6.02905e-05
4.28294e-05
-7.08858e-05
4.5973e-05
-8.20606e-05
4.8702e-05
-9.3727e-05
5.10119e-05
-0.000105796
5.2904e-05
-0.00011818
5.43847e-05
-0.00013079
5.54625e-05
-0.000143543
5.61491e-05
-0.000156354
5.64571e-05
-0.000169143
5.64e-05
-0.000181832
5.59919e-05
-0.000194346
5.52471e-05
-0.000206613
5.41798e-05
-0.000218563
5.2804e-05
-0.000230131
5.11334e-05
-0.000241252
4.91814e-05
-0.000251866
4.69614e-05
-0.000261917
4.44866e-05
-0.000271348
4.17701e-05
-0.00028011
3.88248e-05
-0.000288154
3.56639e-05
-0.000295434
3.23013e-05
-0.000301908
2.87506e-05
-0.000307538
2.50268e-05
-0.000312289
2.11448e-05
-0.000316129
1.7121e-05
-0.000319032
1.29725e-05
-0.000320974
8.71751e-06
-0.000321936
4.37556e-06
-0.000321904
-3.2614e-08
-0.000320869
-4.48484e-06
-0.000318827
-8.95757e-06
-0.000315781
-1.3426e-05
-0.000311738
-1.78639e-05
-0.000306712
-2.22439e-05
-0.000300722
-2.65375e-05
-0.000293795
-3.07149e-05
-0.000285964
-3.47457e-05
-0.000277269
-3.85986e-05
-0.000267758
-4.22422e-05
-0.000257483
-4.56446e-05
-0.000246505
-4.87745e-05
-0.000234893
-5.16005e-05
-0.00022272
-5.40927e-05
-0.000210067
-5.6222e-05
-0.000197018
-5.79612e-05
-0.000183664
-5.92848e-05
-0.000170103
-6.01704e-05
-0.000156434
-6.0598e-05
-0.000142761
-6.0551e-05
-0.00012919
-6.00169e-05
-0.000115828
-5.89875e-05
-0.000102783
-5.74591e-05
-9.01613e-05
-5.54341e-05
-7.80683e-05
-5.29203e-05
-6.66045e-05
-4.99326e-05
-5.58653e-05
-4.64936e-05
-4.59385e-05
-4.2635e-05
-3.69024e-05
-3.83988e-05
-2.88232e-05
-3.38396e-05
-2.17522e-05
-2.90271e-05
-1.5723e-05
-2.405e-05
-1.07476e-05
-1.90209e-05
-6.81282e-06
-1.4082e-05
-3.87607e-06
-9.4146e-06
-1.86117e-06
-5.24927e-06
-6.55608e-07
-1.87904e-06
-1.09962e-07
3.21804e-07
8.55389e-07
-3.71174e-07
-4.0577e-08
-1.53122e-06
2.16848e-06
-3.65591e-06
6.00992e-06
-6.82026e-06
1.09151e-05
-1.10704e-05
1.64616e-05
-1.64299e-05
2.23263e-05
-2.28949e-05
2.82637e-05
-3.04379e-05
3.40897e-05
-3.90119e-05
3.96687e-05
-4.85547e-05
4.49022e-05
-5.89921e-05
4.97212e-05
-7.0241e-05
5.40785e-05
-8.2212e-05
5.79441e-05
-9.48113e-05
6.13017e-05
-0.000107943
6.41438e-05
-0.000121511
6.64716e-05
-0.000135417
6.82912e-05
-0.000149567
6.96124e-05
-0.000163866
7.04483e-05
-0.000178223
7.08141e-05
-0.000192549
7.07258e-05
-0.000206757
7.02003e-05
-0.000220764
6.92549e-05
-0.000234491
6.79069e-05
-0.000247861
6.61735e-05
-0.000260799
6.40716e-05
-0.000273236
6.1618e-05
-0.000285103
5.88292e-05
-0.000296337
5.57216e-05
-0.000306879
5.23117e-05
-0.000316671
4.86158e-05
-0.000325657
4.46505e-05
-0.000333789
4.04332e-05
-0.00034102
3.59812e-05
-0.000347306
3.13131e-05
-0.00035261
2.64483e-05
-0.000356895
2.14068e-05
-0.000360132
1.62104e-05
-0.000362297
1.08821e-05
-0.000363367
5.44623e-06
-0.000363328
-7.1211e-08
-0.000362171
-5.64253e-06
-0.00035989
-1.12383e-05
-0.000356488
-1.68277e-05
-0.000351974
-2.23779e-05
-0.000346363
-2.78549e-05
-0.000339677
-3.32231e-05
-0.000331948
-3.84455e-05
-0.000323209
-4.34845e-05
-0.000313506
-4.8301e-05
-0.000302892
-5.28563e-05
-0.000291426
-5.71108e-05
-0.000279175
-6.10256e-05
-0.000266214
-6.45621e-05
-0.000252623
-6.7683e-05
-0.000238492
-7.03526e-05
-0.000223917
-7.25374e-05
-0.000208996
-7.42059e-05
-0.000193836
-7.53305e-05
-0.000178547
-7.58867e-05
-0.000163244
-7.58543e-05
-0.000148043
-7.52184e-05
-0.000133062
-7.39689e-05
-0.000118419
-7.21021e-05
-0.000104232
-6.96213e-05
-9.06156e-05
-6.6537e-05
-7.76801e-05
-6.28682e-05
-6.55299e-05
-5.8644e-05
-5.42612e-05
-5.39039e-05
-4.39596e-05
-4.87004e-05
-3.46984e-05
-4.3101e-05
-2.65345e-05
-3.71911e-05
-1.95066e-05
-3.1078e-05
-1.36316e-05
-2.48959e-05
-8.90141e-06
-1.88122e-05
-5.27926e-06
-1.30365e-05
-2.6969e-06
-7.83072e-06
-1.0563e-06
-3.52165e-06
-2.28027e-07
-5.19195e-07
6.42867e-07
-5.07744e-07
4.34301e-07
-1.99588e-06
3.68355e-06
-4.62304e-06
8.64364e-06
-8.43504e-06
1.47253e-05
-1.3455e-05
2.14812e-05
-1.96918e-05
2.85632e-05
-2.71304e-05
3.57023e-05
-3.57339e-05
4.26933e-05
-4.54477e-05
4.93827e-05
-5.62024e-05
5.56572e-05
-6.7917e-05
6.14359e-05
-8.05012e-05
6.66628e-05
-9.38585e-05
7.13017e-05
-0.000107888
7.53314e-05
-0.000122486
7.87424e-05
-0.000137549
8.15343e-05
-0.000152971
8.37135e-05
-0.00016865
8.52908e-05
-0.000184482
8.62808e-05
-0.000200369
8.67012e-05
-0.000216214
8.65705e-05
-0.000231922
8.59087e-05
-0.000247403
8.47359e-05
-0.000262569
8.3073e-05
-0.000277335
8.09407e-05
-0.000291623
7.83591e-05
-0.000305354
7.53486e-05
-0.000318454
7.19293e-05
-0.000330853
6.8121e-05
-0.000342485
6.3944e-05
-0.000353287
5.94182e-05
-0.000363201
5.4564e-05
-0.000372171
4.94027e-05
-0.000380145
4.39556e-05
-0.000387077
3.82453e-05
-0.000392924
3.2296e-05
-0.000397649
2.61321e-05
-0.00040122
1.97804e-05
-0.000403607
1.32688e-05
-0.000404787
6.62732e-06
-0.000404746
-1.12379e-07
-0.000403472
-6.91656e-06
-0.00040096
-1.37495e-05
-0.000397214
-2.05734e-05
-0.000392244
-2.73486e-05
-0.000386065
-3.40337e-05
-0.000378703
-4.05855e-05
-0.00037019
-4.69591e-05
-0.000360565
-5.31088e-05
-0.000349879
-5.89876e-05
-0.000338188
-6.45482e-05
-0.000325555
-6.97429e-05
-0.000312055
-7.45248e-05
-0.000297771
-7.8847e-05
-0.00028279
-8.26646e-05
-0.000267207
-8.59346e-05
-0.000251129
-8.86165e-05
-0.000234662
-9.06724e-05
-0.000217923
-9.20692e-05
-0.000201033
-9.27773e-05
-0.000184114
-9.27731e-05
-0.000167295
-9.20385e-05
-0.000150702
-9.0562e-05
-0.000134464
-8.83398e-05
-0.00011871
-8.5376e-05
-0.000103563
-8.16841e-05
-8.91429e-05
-7.72881e-05
-7.55638e-05
-7.22234e-05
-6.29297e-05
-6.65381e-05
-5.13342e-05
-6.0296e-05
-4.08573e-05
-5.3578e-05
-3.15627e-05
-4.64858e-05
-2.34955e-05
-3.91454e-05
-1.66787e-05
-3.17127e-05
-1.1111e-05
-2.43798e-05
-6.76401e-06
-1.73832e-05
-3.57983e-06
-1.10135e-05
-1.47784e-06
-5.62761e-06
-3.51224e-07
-1.66481e-06
3.14736e-07
-6.46597e-07
1.03923e-06
-2.4721e-06
5.54321e-06
-5.61929e-06
1.17998e-05
-1.01036e-05
1.92072e-05
-1.5923e-05
2.73e-05
-2.30695e-05
3.57099e-05
-3.15149e-05
4.41478e-05
-4.12116e-05
5.23901e-05
-5.20955e-05
6.02668e-05
-6.40894e-05
6.76512e-05
-7.71042e-05
7.44509e-05
-9.10428e-05
8.06015e-05
-0.000105801
8.60603e-05
-0.000121272
9.08017e-05
-0.000137343
9.48137e-05
-0.000153903
9.80945e-05
-0.00017084
0.00010065
-0.000188042
0.000102493
-0.000205401
0.00010364
-0.000222809
0.000104109
-0.00024016
0.000103923
-0.000257355
0.000103104
-0.000274295
0.000101676
-0.000290884
9.9663e-05
-0.000307034
9.70897e-05
-0.000322655
9.39798e-05
-0.000337663
9.03573e-05
-0.00035198
8.62461e-05
-0.000365528
8.16701e-05
-0.000378238
7.66531e-05
-0.000390038
7.12191e-05
-0.000400867
6.53929e-05
-0.000410664
5.91996e-05
-0.000419374
5.26652e-05
-0.000426945
4.58169e-05
-0.000433333
3.86833e-05
-0.000438495
3.12943e-05
-0.000442396
2.36816e-05
-0.000445007
1.58792e-05
-0.000446302
7.92254e-06
-0.000446264
-1.50272e-07
-0.000444882
-8.29897e-06
-0.00044215
-1.64809e-05
-0.000438072
-2.4651e-05
-0.000432658
-3.27621e-05
-0.000425927
-4.07648e-05
-0.000417905
-4.86076e-05
-0.000408627
-5.62372e-05
-0.000398137
-6.35993e-05
-0.000386486
-7.06379e-05
-0.000373737
-7.7297e-05
-0.000359961
-8.352e-05
-0.000345234
-8.9251e-05
-0.000329646
-9.44348e-05
-0.000313293
-9.90179e-05
-0.000296279
-0.000102949
-0.000278714
-0.000106181
-0.000260717
-0.000108669
-0.000242412
-0.000110374
-0.000223929
-0.00011126
-0.000205402
-0.000111301
-0.000186965
-0.000110475
-0.000168759
-0.000108768
-0.000150921
-0.000106177
-0.00013359
-0.000102708
-0.000116898
-9.83762e-05
-0.000100975
-9.32112e-05
-8.59432e-05
-8.72552e-05
-7.19158e-05
-8.05656e-05
-5.89943e-05
-7.32177e-05
-4.72665e-05
-6.5306e-05
-3.68034e-05
-5.6949e-05
-2.76574e-05
-4.82914e-05
-1.98595e-05
-3.95107e-05
-1.34169e-05
-3.08224e-05
-8.31121e-06
-2.24884e-05
-4.49714e-06
-1.48258e-05
-1.91349e-06
-8.2173e-06
-4.77446e-07
-3.12637e-06
-1.31677e-07
-7.86605e-07
1.77512e-06
-2.95581e-06
7.75395e-06
-6.63631e-06
1.54917e-05
-1.18127e-05
2.43807e-05
-1.84565e-05
3.39431e-05
-2.65413e-05
4.37948e-05
-3.6024e-05
5.36305e-05
-4.68446e-05
6.32106e-05
-5.89284e-05
7.23509e-05
-7.2189e-05
8.09119e-05
-8.65293e-05
8.87913e-05
-0.000101844
9.59164e-05
-0.000118022
0.000102238
-0.000134947
0.000107727
-0.000152502
0.000112369
-0.000170567
0.00011616
-0.000189023
0.000119106
-0.000207751
0.000121221
-0.000226634
0.000122523
-0.000245558
0.000123033
-0.000264412
0.000122776
-0.000283086
0.000121778
-0.000301476
0.000120066
-0.00031948
0.000117667
-0.000337
0.000114611
-0.000353944
0.000110923
-0.00037022
0.000106634
-0.000385744
0.00010177
-0.000400433
9.6359e-05
-0.000414209
9.04299e-05
-0.000427001
8.40105e-05
-0.000438738
7.71301e-05
-0.000449356
6.98183e-05
-0.000458797
6.21059e-05
-0.000467005
5.40249e-05
-0.000473931
4.56091e-05
-0.00047953
3.68939e-05
-0.000483765
2.79167e-05
-0.000486603
1.87173e-05
-0.000488018
9.33775e-06
-0.000487992
-1.77291e-07
-0.000486511
-9.7805e-06
-0.000483569
-1.94218e-05
-0.000479172
-2.90484e-05
-0.000473329
-3.8605e-05
-0.00046606
-4.80335e-05
-0.000457395
-5.72737e-05
-0.000447368
-6.62634e-05
-0.000436028
-7.49388e-05
-0.000423432
-8.32347e-05
-0.000409643
-9.10856e-05
-0.000394738
-9.84252e-05
-0.000378801
-0.000105188
-0.000361926
-0.00011131
-0.000344215
-0.000116729
-0.000325779
-0.000121385
-0.000306737
-0.000125223
-0.000287217
-0.00012819
-0.00026735
-0.00013024
-0.000247277
-0.000131335
-0.000227138
-0.00013144
-0.00020708
-0.000130532
-0.000187252
-0.000128597
-0.000167801
-0.000125628
-0.000148875
-0.000121634
-0.000130617
-0.000116634
-0.000113166
-0.000110663
-9.66527e-05
-0.000103768
-8.11998e-05
-9.60186e-05
-6.69172e-05
-8.75003e-05
-5.39011e-05
-7.83221e-05
-4.22312e-05
-6.86189e-05
-3.19681e-05
-5.85542e-05
-2.31522e-05
-4.83266e-05
-1.58007e-05
-3.81739e-05
-9.90692e-06
-2.83816e-05
-5.43967e-06
-1.92908e-05
-2.35861e-06
-1.13066e-05
-6.05329e-07
-4.91189e-06
-6.97757e-07
-9.27105e-07
2.64225e-06
-3.44436e-06
1.03202e-05
-7.66835e-06
1.97297e-05
-1.35531e-05
3.02622e-05
-2.10426e-05
4.14319e-05
-3.00911e-05
5.28433e-05
-4.06389e-05
6.41784e-05
-5.26123e-05
7.51841e-05
-6.59252e-05
8.56639e-05
-8.04808e-05
9.54675e-05
-9.61728e-05
0.000104483
-0.000112888
0.000112631
-0.000130506
0.000119857
-0.000148905
0.000126126
-0.000167958
0.000131423
-0.00018754
0.000135742
-0.000207523
0.00013909
-0.000227783
0.000141481
-0.000248196
0.000142935
-0.000268638
0.000143476
-0.000288994
0.000143131
-0.000309145
0.00014193
-0.000328982
0.000139903
-0.000348396
0.000137082
-0.000367284
0.000133498
-0.000385545
0.000129185
-0.000403084
0.000124173
-0.000419809
0.000118495
-0.000435633
0.000112183
-0.000450473
0.00010527
-0.000464251
9.77889e-05
-0.000476894
8.97731e-05
-0.000488333
8.12574e-05
-0.000498505
7.22773e-05
-0.000507351
6.28704e-05
-0.000514817
5.30758e-05
-0.000520858
4.29346e-05
-0.000525432
3.24907e-05
-0.000528504
2.17898e-05
-0.000530047
1.0881e-05
-0.00053004
-1.8399e-07
-0.00052847
-1.13504e-05
-0.000525332
-2.25603e-05
-0.000520628
-3.37526e-05
-0.00051437
-4.48633e-05
-0.000506577
-5.58252e-05
-0.000497282
-6.65691e-05
-0.000486523
-7.70227e-05
-0.000474349
-8.71126e-05
-0.00046082
-9.67637e-05
-0.000446006
-0.0001059
-0.000429985
-0.000114446
-0.000412848
-0.000122325
-0.000394695
-0.000129464
-0.000375634
-0.00013579
-0.000355783
-0.000141236
-0.000335269
-0.000145737
-0.000314226
-0.000149233
-0.000292795
-0.000151671
-0.000271125
-0.000153006
-0.000249365
-0.000153199
-0.000227673
-0.000152224
-0.000206206
-0.000150064
-0.000185122
-0.000146713
-0.000164577
-0.000142179
-0.000144725
-0.000136487
-0.000125714
-0.000129674
-0.000107685
-0.000121797
-9.07704e-05
-0.000112934
-7.50884e-05
-0.000103182
-6.07448e-05
-9.26657e-05
-4.78288e-05
-8.15349e-05
-3.64109e-05
-6.99722e-05
-2.65415e-05
-5.81959e-05
-1.82497e-05
-4.64656e-05
-1.15415e-05
-3.5089e-05
-6.40132e-06
-2.44283e-05
-2.81021e-06
-1.49082e-05
-7.34049e-07
-7.02713e-06
-1.38413e-06
-1.06775e-06
3.64062e-06
-3.93615e-06
1.32452e-05
-8.71171e-06
2.45218e-05
-1.53183e-05
3.6865e-05
-2.36723e-05
4.97848e-05
-3.37072e-05
6.28784e-05
-4.5346e-05
7.58173e-05
-5.85002e-05
8.83383e-05
-7.30708e-05
0.000100235
-8.89497e-05
0.000111347
-0.000106021
0.000121555
-0.000124161
0.000130772
-0.000143244
0.00013894
-0.000163138
0.00014602
-0.000183709
0.000151994
-0.000204824
0.000156857
-0.00022635
0.000160615
-0.000248152
0.000163284
-0.000270101
0.000164885
-0.000292069
0.000165444
-0.000313931
0.000164993
-0.000335564
0.000163563
-0.000356851
0.00016119
-0.000377677
0.000157908
-0.000397932
0.000153754
-0.000417511
0.000148764
-0.000436312
0.000142974
-0.000454238
0.000136421
-0.000471198
0.000129142
-0.000487103
0.000121175
-0.000501869
0.000112556
-0.000515419
0.000103324
-0.000527681
9.35196e-05
-0.000538587
8.31833e-05
-0.000548075
7.23584e-05
-0.000556089
6.10894e-05
-0.000562578
4.94239e-05
-0.0005675
3.74119e-05
-0.000570816
2.51062e-05
-0.000572497
1.25629e-05
-0.000572522
-1.5896e-07
-0.000570876
-1.29965e-05
-0.000567553
-2.58835e-05
-0.000562555
-3.87501e-05
-0.000555895
-5.15232e-05
-0.000547595
-6.41261e-05
-0.000537683
-7.64797e-05
-0.000526205
-8.85015e-05
-0.00051321
-0.000100108
-0.000498761
-0.000111213
-0.000482931
-0.00012173
-0.000465804
-0.000131572
-0.000447475
-0.000140654
-0.000428049
-0.00014889
-0.00040764
-0.000156199
-0.000386374
-0.000162503
-0.000364384
-0.000167727
-0.000341812
-0.000171805
-0.000318807
-0.000174675
-0.000295527
-0.000176287
-0.000272131
-0.000176596
-0.000248783
-0.000175572
-0.000225653
-0.000173195
-0.000202907
-0.000169459
-0.000180712
-0.000164374
-0.000159232
-0.000157967
-0.000138625
-0.000150281
-0.000119042
-0.00014138
-0.000100624
-0.000131352
-8.35009e-05
-0.000120305
-6.77886e-05
-0.000108378
-5.35863e-05
-9.57373e-05
-4.09752e-05
-8.25831e-05
-3.00179e-05
-6.91532e-05
-2.07558e-05
-5.57278e-05
-1.32091e-05
-4.26348e-05
-7.37838e-06
-3.02558e-05
-3.26659e-06
-1.90328e-05
-8.63186e-07
-9.47656e-06
-2.19104e-06
-1.20843e-06
4.7701e-06
-4.4304e-06
1.65314e-05
-9.76423e-06
2.98749e-05
-1.71044e-05
4.42008e-05
-2.63394e-05
5.90186e-05
-3.73815e-05
7.39208e-05
-5.01358e-05
8.85715e-05
-6.44976e-05
0.0001027
-8.03542e-05
0.000116091
-9.75853e-05
0.000128578
-0.000116064
0.000140034
-0.000135658
0.000150366
-0.000156231
0.000159513
-0.000177644
0.000167433
-0.000199756
0.000174106
-0.000222425
0.000179526
-0.000245509
0.0001837
-0.00026887
0.000186646
-0.000292372
0.000188385
-0.000315877
0.000188949
-0.000339255
0.000188371
-0.000362378
0.000186686
-0.000385122
0.000183933
-0.000407366
0.000180152
-0.000428994
0.000175383
-0.000449896
0.000169666
-0.000469965
0.000163042
-0.000489098
0.000155554
-0.000507198
0.000147242
-0.000524171
0.000138148
-0.000539931
0.000128316
-0.000554396
0.000117789
-0.000567489
0.000106612
-0.000579137
9.48319e-05
-0.000589276
8.24974e-05
-0.000597846
6.96596e-05
-0.000604794
5.63721e-05
-0.000610074
4.26919e-05
-0.000613646
2.86786e-05
-0.000615479
1.43961e-05
-0.000615549
-8.87086e-08
-0.000613841
-1.47047e-05
-0.000610347
-2.9377e-05
-0.000605071
-4.40265e-05
-0.000598024
-5.85705e-05
-0.000589227
-7.29224e-05
-0.000578714
-8.69924e-05
-0.000566528
-0.000100688
-0.000552723
-0.000113913
-0.000537363